<VTKFile type="PolyData" version="1.0" byte_order="LittleEndian" header_type="UInt64">
  <PolyData>
    <Piece NumberOfPoints="961" NumberOfVerts="0" NumberOfLines="0" NumberOfStrips="0" NumberOfPolys="900">
      <PointData>
        <DataArray type="Float32" Name="zvalue" NumberOfComponents="1" format="ascii" RangeMin="0.6443634327479497" RangeMax="2.312535423847214">
          2.312535423847214 2.312535423847214 2.312535423847214 2.312535423847214 2.312535423847214 2.312535423847214
          2.312535423847214 2.312535423847214 2.312535423847214 2.312535423847214 2.312535423847214 2.312535423847214
          2.312535423847214 2.312535423847214 2.312535423847214 2.312535423847214 2.312535423847214 2.312535423847214
          2.312535423847214 2.312535423847214 2.312535423847214 2.312535423847214 2.312535423847214 2.312535423847214
          2.312535423847214 2.312535423847214 2.312535423847214 2.312535423847214 2.312535423847214 2.312535423847214
          2.312535423847214 2.312535423847214 2.312535423847214 2.312535423847214 2.312535423847214 2.312535423847214
          2.312535423847214 2.312535423847214 2.312535423847214 2.312535423847214 2.312535423847214 2.312535423847214
          2.312535423847214 2.312535423847214 2.312535423847214 2.312535423847214 2.312535423847214 2.312535423847214
          2.312535423847214 2.312535423847214 2.312535423847214 2.312535423847214 2.312535423847214 2.312535423847214
          2.312535423847214 2.312535423847214 2.312535423847214 2.312535423847214 2.312535423847214 2.312535423847214
          2.312535423847214 2.312535423847214 2.312535423847214 2.312535423847214 2.312535423847214 2.312535423847214
          2.312535423847214 2.312535423847214 2.312535423847214 2.312535423847214 2.312535423847214 2.312535423847214
          2.312535423847214 2.312535423847214 2.312535423847214 2.312535423847214 2.312535423847214 2.312535423847214
          2.312535423847214 2.312535423847214 2.312535423847214 2.312535423847214 2.312535423847214 2.312535423847214
          2.312535423847214 2.312535423847214 2.312535423847214 2.312535423847214 2.312535423847214 2.312535423847214
          2.312535423847214 2.312535423847214 2.312535423847214 2.312535423847214 2.312535423847214 2.312535423847214
          2.312535423847214 2.312535423847214 2.312535423847214 2.312535423847214 2.312535423847214 2.312535423847214
          2.312535423847214 2.312535423847214 2.312535423847214 2.312535423847214 2.312535423847214 2.312535423847214
          2.312535423847214 2.312535423847214 2.312535423847214 2.312535423847214 2.312535423847214 2.312535423847214
          2.312535423847214 2.312535423847214 2.312535423847214 2.312535423847214 2.312535423847214 2.312535423847214
          2.312535423847214 2.312535423847214 2.312535423847214 2.312535423847214 2.312535423847214 2.312535423847214
          2.312535423847214 2.312535423847214 2.312535423847214 2.312535423847214 2.312535423847214 2.312535423847214
          2.312535423847214 2.312535423847214 2.312535423847214 2.312535423847214 2.312535423847214 2.312535423847214
          2.312535423847214 2.312535423847214 2.312535423847214 2.312535423847214 2.312535423847214 2.312535423847214
          2.312535423847214 2.312535423847214 2.312535423847214 2.312535423847214 2.312535423847214 2.312535423847214
          2.312535423847214 2.312535423847214 2.312535423847214 2.312535423847214 2.312535423847214 2.312535423847214
          2.312535423847214 2.312535423847214 2.312535423847214 2.312535423847214 2.312535423847214 2.312535423847214
          2.312535423847214 2.312535423847214 2.312535423847214 2.312535423847214 2.312535423847214 2.312535423847214
          2.312535423847214 2.312535423847214 2.312535423847214 2.312535423847214 2.312535423847214 2.312535423847214
          2.312535423847214 2.312535423847214 2.312535423847214 2.312535423847214 2.312535423847214 2.312535423847214
          2.312535423847214 2.312535423847214 2.312535423847214 2.312535423847214 2.312535423847214 2.312535423847214
          2.312535423847214 2.312535423847214 2.312535423847214 2.312535423847214 2.312535423847214 2.312535423847214
          2.312535423847214 2.312535423847214 2.312535423847214 2.312535423847214 2.312535423847214 2.312535423847214
          2.312535423847214 2.312535423847214 2.312535423847214 2.312535423847214 2.312535423847214 2.312535423847214
          2.312535423847214 2.312535423847214 2.312535423847214 2.312535423847214 2.312535423847214 2.312535423847214
          2.312535423847214 2.312535423847214 2.312535423847214 2.312535423847214 2.312535423847214 2.312535423847214
          2.312535423847214 2.312535423847214 2.312535423847214 2.312535423847214 2.312535423847214 2.312535423847214
          2.312535423847214 2.312535423847214 2.312535423847214 2.312535423847214 2.312535423847214 2.312535423847214
          2.312535423847214 2.312535423847214 2.312535423847214 2.312535423847214 2.312535423847214 2.312535423847214
          2.312535423847214 2.312535423847214 2.312535423847214 2.312535423847214 2.312535423847214 2.312535423847214
          2.312535423847214 2.312535423847214 2.312535423847214 2.312535423847214 2.312535423847214 2.312535423847214
          2.312535423847214 2.312535423847214 2.312535423847214 2.312535423847214 2.312535423847214 2.312535423847214
          2.312535423847214 2.312535423847214 2.312535423847214 2.312535423847214 2.312535423847214 2.312535423847214
          2.312535423847214 2.312535423847214 2.312535423847214 2.312535423847214 2.312535423847214 2.312535423847214
          2.312535423847214 2.312535423847214 2.312535423847214 2.312535423847214 2.312535423847214 2.312535423847214
          2.312535423847214 2.312535423847214 2.312535423847214 2.312535423847214 2.312535423847214 2.312535423847214
          2.312535423847214 2.312535423847214 2.312535423847214 2.312535423847214 2.312535423847214 2.312535423847214
          2.312535423847214 2.312535423847214 2.312535423847214 2.312535423847214 2.312535423847214 2.312535423847214
          2.312535423847214 2.312535423847214 2.312535423847214 2.312535423847214 2.312535423847214 2.312535423847214
          2.312535423847214 2.312535423847214 2.312535423847214 2.312535423847214 2.312535423847214 2.312535423847214
          2.312535423847214 2.312535423847214 2.312535423847214 2.312535423847214 2.312535423847214 2.312535423847214
          2.312535423847214 2.312535423847214 2.312535423847214 2.312535423847214 2.312535423847214 2.312535423847214
          2.312535423847214 2.312535423847214 2.312535423847214 2.312535423847214 2.312535423847214 2.312535423847214
          2.312535423847214 2.312535423847214 2.312535423847214 2.312535423847214 2.312535423847214 2.312535423847214
          2.312535423847214 2.312535423847214 2.312535423847214 2.312535423847214 2.312535423847214 2.312535423847214
          2.312535423847214 2.312535423847214 2.312535423847214 2.312535423847214 2.312535423847214 2.312535423847214
          2.312535423847214 2.312535423847214 2.312535423847214 2.312535423847214 2.312535423847214 1.9415876105803007
          1.9816324233794602 2.0183281009091276 2.0528323816208323 2.085938328394888 2.1144188079433484 2.131777931847445
          2.1314835061681685 2.1145378517340765 2.093325293894324 2.088096503357012 2.093797562094958 2.0886662007995263
          2.0354038754890333 1.9038899093356796 1.7939531931522126 1.877593216383174 2.312535423847214 2.312535423847214
          2.312535423847214 2.312535423847214 2.312535423847214 2.312535423847214 2.312535423847214 2.312535423847214
          2.312535423847214 2.312535423847214 2.312535423847214 2.312535423847214 2.312535423847214 2.312535423847214
          1.2211110116804333 1.236513755690992 1.2526092453070987 1.2700023988177986 1.2903978230703153 1.3118112440014196
          1.330488303816885 1.3379475453313865 1.3311146556048976 1.32540665218786 1.3447978826033817 1.3964041083058853
          1.4568820379567526 1.477803361373797 1.422329431777783 1.365258830582775 1.8121229009486617 2.312535423847214
          2.312535423847214 2.312535423847214 2.312535423847214 2.312535423847214 2.312535423847214 2.312535423847214
          2.312535423847214 2.312535423847214 2.312535423847214 2.312535423847214 2.312535423847214 2.312535423847214
          2.312535423847214 0.9410340492515686 0.9407873279698687 0.9421085756206566 0.9439058235037711 0.9442363679244324
          0.9419910243763229 0.9356545354663517 0.9210379756758865 0.8931590868365065 0.8550801353093679 0.8252811742711789
          0.833462650462107 0.8912529208699446 0.9654448030937982 1.0010855193693307 1.2682245483115233 2.312535423847214
          2.312535423847214 2.312535423847214 2.312535423847214 2.312535423847214 2.312535423847214 2.312535423847214
          2.312535423847214 2.312535423847214 2.312535423847214 2.312535423847214 2.312535423847214 2.312535423847214
          2.312535423847214 2.312535423847214 0.9251195403322329 0.9291994619291477 0.9326976897257407 0.9348085453473844
          0.934548905156902 0.9313947666954372 0.9245858463426888 0.9111439248566366 0.8868500802300686 0.8483465730782759
          0.793347169938773 0.7295941915348925 0.6859744333761308 0.7015233917779325 0.7923076851589308 1.4706276350478316
          2.312535423847214 2.312535423847214 2.312535423847214 2.312535423847214 2.312535423847214 2.312535423847214
          2.312535423847214 2.312535423847214 2.312535423847214 2.312535423847214 2.312535423847214 2.312535423847214
          2.312535423847214 2.312535423847214 2.312535423847214 0.9364952027033032 0.9419435058610544 0.9462704897122445
          0.948353463116292 0.9482230622855361 0.9454563882155731 0.9392361760713004 0.9278564809297056 0.9092589147013518
          0.8801862687618281 0.8358737710686394 0.7713733987754565 0.6909514791531299 0.6443634327479497 0.7750883339388535
          1.8179018461146619 2.312535423847214 2.312535423847214 2.312535423847214 2.312535423847214 2.312535423847214
          2.312535423847214 2.312535423847214 2.312535423847214 2.312535423847214 2.312535423847214 2.312535423847214
          2.312535423847214 2.312535423847214 2.312535423847214 2.312535423847214 0.9623940534542709 0.9665227269088267
          0.9690333447090718 0.9697882226383063 0.9683852388889063 0.9641953699199491 0.9563244778686997 0.9446461338987959
          0.9283296789087678 0.9055666347397111 0.8712273501888296 0.8168276595474859 0.7335403691057654 0.6752356348908374
          0.9509601346880358 2.312535423847214 2.312535423847214 2.312535423847214 2.312535423847214 2.312535423847214
          2.312535423847214 2.312535423847214 2.312535423847214 2.312535423847214 2.312535423847214 2.312535423847214
          2.312535423847214 2.312535423847214 2.312535423847214 2.312535423847214 2.312535423847214 1.0080788550010062
          1.0114779819538524 1.0099878970197187 1.0041475742509567 0.9959810121993136 0.9859233774624604 0.9740392586573224
          0.9611109051925343 0.946324563666907 0.9281563588567355 0.9032310091167491 0.8646237287501769 0.8113198650248165
          0.9086509054140625 1.7497548135469858 2.312535423847214 2.312535423847214 2.312535423847214 2.312535423847214
          2.312535423847214 2.312535423847214 2.312535423847214 2.312535423847214 2.312535423847214 2.312535423847214
          2.312535423847214 2.312535423847214 2.312535423847214 2.312535423847214 2.312535423847214 2.312535423847214
          1.1019572333452674 1.1032694623059631 1.0882917992827827 1.0646793550902778 1.0427338791936873 1.0244995780231556
          1.009207803896863 0.9972568936010026 0.9891352563726137 0.9882270297608544 1.0034316863320112 1.0437900403157956
          1.1343928292987866 1.7100775259337828 2.312535423847214 2.312535423847214 2.312535423847214 2.312535423847214
          2.312535423847214 2.312535423847214 2.312535423847214 2.312535423847214 2.312535423847214 2.312535423847214
          2.312535423847214 2.312535423847214 2.312535423847214 2.312535423847214 2.312535423847214 2.312535423847214
          2.312535423847214 1.283121897736134 1.275634909751003 1.2578775661113217 1.2205377221830198 1.1805015316939025
          1.1552018309551781 1.1541631489283237 1.1865353996491734 1.2625326212308847 1.3859194809283828 1.5544434475643927
          1.7753830725898627 2.1734736613255117 2.312535423847214 2.312535423847214 2.312535423847214 2.312535423847214
          2.312535423847214 2.312535423847214 2.312535423847214 2.312535423847214 2.312535423847214 2.312535423847214
          2.312535423847214 2.312535423847214 2.312535423847214 2.312535423847214 2.312535423847214 2.312535423847214
          2.312535423847214 2.312535423847214 2.057015978383329 1.9151656778261972 1.7391577894934866 1.6068319461516416
          1.5972597190497508 1.6779484822888913 1.809636990895772 1.9868931868992488 2.211425235695375 2.312535423847214
          2.312535423847214 2.312535423847214 2.312535423847214 2.312535423847214 2.312535423847214 2.312535423847214
          2.312535423847214 2.312535423847214 2.312535423847214 2.312535423847214 2.312535423847214 2.312535423847214
          2.312535423847214 2.312535423847214 2.312535423847214 2.312535423847214 2.312535423847214 2.312535423847214
          2.312535423847214 2.312535423847214 2.312535423847214 2.312535423847214 2.312535423847214 2.312535423847214
          2.312535423847214 2.312535423847214 2.312535423847214 2.312535423847214 2.312535423847214 2.312535423847214
          2.312535423847214 2.312535423847214 2.312535423847214 2.312535423847214 2.312535423847214 2.312535423847214
          2.312535423847214 2.312535423847214 2.312535423847214 2.312535423847214 2.312535423847214 2.312535423847214
          2.312535423847214 2.312535423847214 2.312535423847214 2.312535423847214 2.312535423847214 2.312535423847214
          2.312535423847214 2.312535423847214 2.312535423847214 2.312535423847214 2.312535423847214 2.312535423847214
          2.312535423847214 2.312535423847214 2.312535423847214 2.312535423847214 2.312535423847214 2.312535423847214
          2.312535423847214 2.312535423847214 2.312535423847214 2.312535423847214 2.312535423847214 2.312535423847214
          2.312535423847214 2.312535423847214 2.312535423847214 2.312535423847214 2.312535423847214 2.312535423847214
          2.312535423847214 2.312535423847214 2.312535423847214 2.312535423847214 2.312535423847214 2.312535423847214
          2.312535423847214 2.312535423847214 2.312535423847214 2.312535423847214 2.312535423847214 2.312535423847214
          2.312535423847214 2.312535423847214 2.312535423847214 2.312535423847214 2.312535423847214 2.312535423847214
          2.312535423847214 2.312535423847214 2.312535423847214 2.312535423847214 2.312535423847214 2.312535423847214
          2.312535423847214 2.312535423847214 2.312535423847214 2.312535423847214 2.312535423847214 2.312535423847214
          2.312535423847214 2.312535423847214 2.312535423847214 2.312535423847214 2.312535423847214 2.312535423847214
          2.312535423847214 2.312535423847214 2.312535423847214 2.312535423847214 2.312535423847214 2.312535423847214
          2.312535423847214 2.312535423847214 2.312535423847214 2.312535423847214 2.312535423847214 2.312535423847214
          2.312535423847214 2.312535423847214 2.312535423847214 2.312535423847214 2.312535423847214 2.312535423847214
          2.312535423847214 2.312535423847214 2.312535423847214 2.312535423847214 2.312535423847214 2.312535423847214
          2.312535423847214 2.312535423847214 2.312535423847214 2.312535423847214 2.312535423847214 2.312535423847214
          2.312535423847214 2.312535423847214 2.312535423847214 2.312535423847214 2.312535423847214 2.312535423847214
          2.312535423847214 2.312535423847214 2.312535423847214 2.312535423847214 2.312535423847214 2.312535423847214
          2.312535423847214 2.312535423847214 2.312535423847214 2.312535423847214 2.312535423847214 2.312535423847214
          2.312535423847214 2.312535423847214 2.312535423847214 2.312535423847214 2.312535423847214 2.312535423847214
          2.312535423847214 2.312535423847214 2.312535423847214 2.312535423847214 2.312535423847214 2.312535423847214
          2.312535423847214 2.312535423847214 2.312535423847214 2.312535423847214 2.312535423847214 2.312535423847214
          2.312535423847214 2.312535423847214 2.312535423847214 2.312535423847214 2.312535423847214 2.312535423847214
          2.312535423847214 2.312535423847214 2.312535423847214 2.312535423847214 2.312535423847214 2.312535423847214
          2.312535423847214 2.312535423847214 2.312535423847214 2.312535423847214 2.312535423847214 2.312535423847214
          2.312535423847214 2.312535423847214 2.312535423847214 2.312535423847214 2.312535423847214 2.312535423847214
          2.312535423847214 2.312535423847214 2.312535423847214 2.312535423847214 2.312535423847214 2.312535423847214
          2.312535423847214 2.312535423847214 2.312535423847214 2.312535423847214 2.312535423847214 2.312535423847214
          2.312535423847214 2.312535423847214 2.312535423847214 2.312535423847214 2.312535423847214 2.312535423847214
          2.312535423847214 2.312535423847214 2.312535423847214 2.312535423847214 2.312535423847214 2.312535423847214
          2.312535423847214 2.312535423847214 2.312535423847214 2.312535423847214 2.312535423847214 2.312535423847214
          2.312535423847214 2.312535423847214 2.312535423847214 2.312535423847214 2.312535423847214 2.312535423847214
          2.312535423847214 2.312535423847214 2.312535423847214 2.312535423847214 2.312535423847214 2.312535423847214
          2.312535423847214 2.312535423847214 2.312535423847214 2.312535423847214 2.312535423847214 2.312535423847214
          2.312535423847214 2.312535423847214 2.312535423847214 2.312535423847214 2.312535423847214 2.312535423847214
          2.312535423847214 2.312535423847214 2.312535423847214 2.312535423847214 2.312535423847214 2.312535423847214
          2.312535423847214 2.312535423847214 2.312535423847214 2.312535423847214 2.312535423847214 2.312535423847214
          2.312535423847214 2.312535423847214 2.312535423847214 2.312535423847214 2.312535423847214 2.312535423847214
          2.312535423847214 2.312535423847214 2.312535423847214 2.312535423847214 2.312535423847214 2.312535423847214
          2.312535423847214 2.312535423847214 2.312535423847214 2.312535423847214 2.312535423847214 2.312535423847214
          2.312535423847214 2.312535423847214 2.312535423847214 2.312535423847214 2.312535423847214 2.312535423847214
          2.312535423847214 2.312535423847214 2.312535423847214 2.312535423847214 2.312535423847214 2.312535423847214
          2.312535423847214 2.312535423847214 2.312535423847214 2.312535423847214 2.312535423847214 2.312535423847214
          2.312535423847214 2.312535423847214 2.312535423847214 2.312535423847214 2.312535423847214 2.312535423847214
          2.312535423847214 2.312535423847214 2.312535423847214 2.312535423847214 2.312535423847214 2.312535423847214
          2.312535423847214 2.312535423847214 2.312535423847214 2.312535423847214 2.312535423847214 2.312535423847214
          2.312535423847214 2.312535423847214 2.312535423847214 2.312535423847214 2.312535423847214 2.312535423847214
          2.312535423847214 2.312535423847214 2.312535423847214 2.312535423847214 2.312535423847214 2.312535423847214
          2.312535423847214 
        </DataArray>
      </PointData>
      <CellData>
        <DataArray type="Float32" Name="averaged zvalue" NumberOfComponents="1" format="ascii" RangeMin="0.6807031842637858" RangeMax="2.312535423847214">
          2.312535423847214 2.312535423847214 2.312535423847214 2.312535423847214 2.312535423847214 2.312535423847214
          2.312535423847214 2.312535423847214 2.312535423847214 2.312535423847214 2.312535423847214 2.312535423847214
          2.312535423847214 2.312535423847214 2.312535423847214 2.312535423847214 2.312535423847214 2.312535423847214
          2.312535423847214 2.312535423847214 2.312535423847214 2.312535423847214 2.312535423847214 2.312535423847214
          2.312535423847214 2.312535423847214 2.312535423847214 2.312535423847214 2.312535423847214 2.312535423847214
          2.312535423847214 2.312535423847214 2.312535423847214 2.312535423847214 2.312535423847214 2.312535423847214
          2.312535423847214 2.312535423847214 2.312535423847214 2.312535423847214 2.312535423847214 2.312535423847214
          2.312535423847214 2.312535423847214 2.312535423847214 2.312535423847214 2.312535423847214 2.312535423847214
          2.312535423847214 2.312535423847214 2.312535423847214 2.312535423847214 2.312535423847214 2.312535423847214
          2.312535423847214 2.312535423847214 2.312535423847214 2.312535423847214 2.312535423847214 2.312535423847214
          2.312535423847214 2.312535423847214 2.312535423847214 2.312535423847214 2.312535423847214 2.312535423847214
          2.312535423847214 2.312535423847214 2.312535423847214 2.312535423847214 2.312535423847214 2.312535423847214
          2.312535423847214 2.312535423847214 2.312535423847214 2.312535423847214 2.312535423847214 2.312535423847214
          2.312535423847214 2.312535423847214 2.312535423847214 2.312535423847214 2.312535423847214 2.312535423847214
          2.312535423847214 2.312535423847214 2.312535423847214 2.312535423847214 2.312535423847214 2.312535423847214
          2.312535423847214 2.312535423847214 2.312535423847214 2.312535423847214 2.312535423847214 2.312535423847214
          2.312535423847214 2.312535423847214 2.312535423847214 2.312535423847214 2.312535423847214 2.312535423847214
          2.312535423847214 2.312535423847214 2.312535423847214 2.312535423847214 2.312535423847214 2.312535423847214
          2.312535423847214 2.312535423847214 2.312535423847214 2.312535423847214 2.312535423847214 2.312535423847214
          2.312535423847214 2.312535423847214 2.312535423847214 2.312535423847214 2.312535423847214 2.312535423847214
          2.312535423847214 2.312535423847214 2.312535423847214 2.312535423847214 2.312535423847214 2.312535423847214
          2.312535423847214 2.312535423847214 2.312535423847214 2.312535423847214 2.312535423847214 2.312535423847214
          2.312535423847214 2.312535423847214 2.312535423847214 2.312535423847214 2.312535423847214 2.312535423847214
          2.312535423847214 2.312535423847214 2.312535423847214 2.312535423847214 2.312535423847214 2.312535423847214
          2.312535423847214 2.312535423847214 2.312535423847214 2.312535423847214 2.312535423847214 2.312535423847214
          2.312535423847214 2.312535423847214 2.312535423847214 2.312535423847214 2.312535423847214 2.312535423847214
          2.312535423847214 2.312535423847214 2.312535423847214 2.312535423847214 2.312535423847214 2.312535423847214
          2.312535423847214 2.312535423847214 2.312535423847214 2.312535423847214 2.312535423847214 2.312535423847214
          2.312535423847214 2.312535423847214 2.312535423847214 2.312535423847214 2.312535423847214 2.312535423847214
          2.312535423847214 2.312535423847214 2.312535423847214 2.312535423847214 2.312535423847214 2.312535423847214
          2.312535423847214 2.312535423847214 2.312535423847214 2.312535423847214 2.312535423847214 2.312535423847214
          2.312535423847214 2.312535423847214 2.312535423847214 2.312535423847214 2.312535423847214 2.312535423847214
          2.312535423847214 2.312535423847214 2.312535423847214 2.312535423847214 2.312535423847214 2.312535423847214
          2.312535423847214 2.312535423847214 2.312535423847214 2.312535423847214 2.312535423847214 2.312535423847214
          2.312535423847214 2.312535423847214 2.312535423847214 2.312535423847214 2.312535423847214 2.312535423847214
          2.312535423847214 2.312535423847214 2.312535423847214 2.312535423847214 2.312535423847214 2.312535423847214
          2.312535423847214 2.312535423847214 2.312535423847214 2.312535423847214 2.312535423847214 2.312535423847214
          2.312535423847214 2.312535423847214 2.312535423847214 2.312535423847214 2.312535423847214 2.312535423847214
          2.312535423847214 2.312535423847214 2.312535423847214 2.312535423847214 2.312535423847214 2.312535423847214
          2.312535423847214 2.312535423847214 2.312535423847214 2.312535423847214 2.312535423847214 2.312535423847214
          2.312535423847214 2.312535423847214 2.312535423847214 2.312535423847214 2.312535423847214 2.312535423847214
          2.312535423847214 2.312535423847214 2.312535423847214 2.312535423847214 2.312535423847214 2.312535423847214
          2.312535423847214 2.312535423847214 2.312535423847214 2.312535423847214 2.312535423847214 2.312535423847214
          2.312535423847214 2.312535423847214 2.312535423847214 2.312535423847214 2.312535423847214 2.312535423847214
          2.312535423847214 2.312535423847214 2.312535423847214 2.312535423847214 2.312535423847214 2.312535423847214
          2.312535423847214 2.312535423847214 2.312535423847214 2.312535423847214 2.312535423847214 2.312535423847214
          2.312535423847214 2.312535423847214 2.312535423847214 2.312535423847214 2.312535423847214 2.312535423847214
          2.312535423847214 2.312535423847214 2.312535423847214 2.312535423847214 2.312535423847214 2.312535423847214
          2.312535423847214 2.312535423847214 2.312535423847214 2.312535423847214 2.312535423847214 2.312535423847214
          2.312535423847214 2.312535423847214 2.312535423847214 2.312535423847214 2.312535423847214 2.312535423847214
          2.1370727204135473 2.156257842995754 2.174057832556097 2.190960389427537 2.206356996008166 2.2178168968713052
          2.22208307142751 2.217773051399168 2.2082334983307073 2.2016231612364408 2.201741228286599 2.201883652647228
          2.1872852309957467 2.141091158129785 2.08072848754558 2.0741543143074535 2.2037998719812038 2.312535423847214
          2.312535423847214 2.312535423847214 2.312535423847214 2.312535423847214 2.312535423847214 2.312535423847214
          2.312535423847214 2.312535423847214 2.312535423847214 2.312535423847214 2.312535423847214 2.312535423847214
          1.5952112003327965 1.6222708813216697 1.6484430316637142 1.6747927329759584 1.7006415508524928 1.7221240719022746
          1.7329243217909713 1.7287708897096326 1.7160961133552897 1.7129065830106445 1.7307740140903092 1.7589374772892805
          1.7646888689047773 1.7098566444940733 1.6213578412121126 1.7122320352667058 2.078696741256566 2.312535423847214
          2.312535423847214 2.312535423847214 2.312535423847214 2.312535423847214 2.312535423847214 2.312535423847214
          2.312535423847214 2.312535423847214 2.312535423847214 2.312535423847214 2.312535423847214 2.312535423847214
          1.0848615361482157 1.093004726147154 1.1021565108123312 1.1121356033290792 1.1221091148431226 1.129986276915245
          1.1312820900726275 1.1208148158621691 1.101190132484658 1.087641461092947 1.099986453910638 1.1445004293986725
          1.1978457808235732 1.2166657789036772 1.264224582510353 1.6895354259225435 2.187432293122576 2.312535423847214
          2.312535423847214 2.312535423847214 2.312535423847214 2.312535423847214 2.312535423847214 2.312535423847214
          2.312535423847214 2.312535423847214 2.312535423847214 2.312535423847214 2.312535423847214 2.312535423847214
          0.9340350948707046 0.9361982638113535 0.9383801585493882 0.9393749104831224 0.9380427660382735 0.9334065432202001
          0.9231055705853909 0.9030477668997746 0.8708589688635547 0.830513763149399 0.7954212965517379 0.7850710490607687
          0.8110488872794516 0.865090349849998 1.133061346971904 1.8409807577634456 2.312535423847214 2.312535423847214
          2.312535423847214 2.312535423847214 2.312535423847214 2.312535423847214 2.312535423847214 2.312535423847214
          2.312535423847214 2.312535423847214 2.312535423847214 2.312535423847214 2.312535423847214 2.312535423847214
          0.9331894277064345 0.9375277868070468 0.9405325469754153 0.9414834939765286 0.939905780588362 0.9351682943312499
          0.9257056070500829 0.9087773501794407 0.8811604591928811 0.8394384457118791 0.7825471328294404 0.7194733757099023
          0.6807031842637858 0.7283207109059167 1.2139813750650694 1.9784000822142302 2.312535423847214 2.312535423847214
          2.312535423847214 2.312535423847214 2.312535423847214 2.312535423847214 2.312535423847214 2.312535423847214
          2.312535423847214 2.312535423847214 2.312535423847214 2.312535423847214 2.312535423847214 2.312535423847214
          0.9518388722318638 0.9559425167977993 0.9583613800439786 0.9586874967322603 0.9565650148274911 0.9513031030188805
          0.9420158171921253 0.9275228021096553 0.9058353742779146 0.873213506189752 0.8238255448951028 0.7531732266454594
          0.6860227289744206 0.761411884066419 1.4641214346471911 2.188877029414076 2.312535423847214 2.312535423847214
          2.312535423847214 2.312535423847214 2.312535423847214 2.312535423847214 2.312535423847214 2.312535423847214
          2.312535423847214 2.312535423847214 2.312535423847214 2.312535423847214 2.312535423847214 2.312535423847214
          0.9871184043294892 0.9892554876478674 0.9882392596545133 0.9845755119943708 0.9786212496176574 0.9701206209771079
          0.9590301939043381 0.9451028204167513 0.9270943090430304 0.9020453382255063 0.8639774369008104 0.8065779056070611
          0.7821866936088704 1.0711503721349804 1.8314464489823623 2.312535423847214 2.312535423847214 2.312535423847214
          2.312535423847214 2.312535423847214 2.312535423847214 2.312535423847214 2.312535423847214 2.312535423847214
          2.312535423847214 2.312535423847214 2.312535423847214 2.312535423847214 2.312535423847214 2.312535423847214
          1.0561958831515224 1.0532567851405794 1.041776656410934 1.026885455183559 1.0122844617196542 0.9984175045099504
          0.9854037153369306 0.9734569047082644 0.9629608021642777 0.9557615210165876 0.9537691161286832 0.9635316158473939