<VTKFile type="PolyData" version="1.0" byte_order="LittleEndian" header_type="UInt64">
  <PolyData>
    <Piece NumberOfPoints="961" NumberOfVerts="0" NumberOfLines="0" NumberOfStrips="0" NumberOfPolys="900">
      <PointData>
        <DataArray type="Float32" Name="zvalue" NumberOfComponents="1" format="ascii" RangeMin="0.7833703279207572" RangeMax="2.312535423847214">
          2.312535423847214 2.312535423847214 2.312535423847214 2.312535423847214 2.312535423847214 2.312535423847214
          2.312535423847214 2.312535423847214 2.312535423847214 2.312535423847214 2.312535423847214 2.312535423847214
          2.312535423847214 2.312535423847214 2.312535423847214 2.312535423847214 2.312535423847214 2.312535423847214
          2.312535423847214 2.312535423847214 2.312535423847214 2.312535423847214 2.312535423847214 2.312535423847214
          2.312535423847214 2.312535423847214 2.312535423847214 2.312535423847214 2.312535423847214 2.312535423847214
          2.312535423847214 2.312535423847214 2.312535423847214 2.312535423847214 2.312535423847214 2.312535423847214
          2.312535423847214 2.312535423847214 2.312535423847214 2.312535423847214 2.312535423847214 2.312535423847214
          2.312535423847214 2.312535423847214 2.312535423847214 2.312535423847214 2.312535423847214 2.312535423847214
          2.312535423847214 2.312535423847214 2.312535423847214 2.312535423847214 2.312535423847214 2.312535423847214
          2.312535423847214 2.312535423847214 2.312535423847214 2.312535423847214 2.312535423847214 2.312535423847214
          2.312535423847214 2.312535423847214 2.312535423847214 2.312535423847214 2.312535423847214 2.312535423847214
          2.312535423847214 2.312535423847214 2.312535423847214 2.312535423847214 2.312535423847214 2.312535423847214
          2.312535423847214 2.312535423847214 2.312535423847214 2.312535423847214 2.312535423847214 2.312535423847214
          2.312535423847214 2.312535423847214 2.312535423847214 2.312535423847214 2.312535423847214 2.312535423847214
          2.312535423847214 2.312535423847214 2.312535423847214 2.312535423847214 2.312535423847214 2.312535423847214
          2.312535423847214 2.312535423847214 2.312535423847214 2.312535423847214 2.312535423847214 2.312535423847214
          2.312535423847214 2.312535423847214 2.312535423847214 2.312535423847214 2.312535423847214 2.312535423847214
          2.312535423847214 2.312535423847214 2.312535423847214 2.312535423847214 2.312535423847214 2.312535423847214
          2.312535423847214 2.312535423847214 2.312535423847214 2.312535423847214 2.312535423847214 2.312535423847214
          2.312535423847214 2.312535423847214 2.312535423847214 2.312535423847214 2.312535423847214 2.312535423847214
          2.312535423847214 2.312535423847214 2.312535423847214 2.312535423847214 2.312535423847214 2.312535423847214
          2.312535423847214 2.312535423847214 2.312535423847214 2.312535423847214 2.312535423847214 2.312535423847214
          2.312535423847214 2.312535423847214 2.312535423847214 2.312535423847214 2.312535423847214 2.312535423847214
          2.312535423847214 2.312535423847214 2.312535423847214 2.312535423847214 2.312535423847214 2.312535423847214
          2.312535423847214 2.312535423847214 2.312535423847214 2.312535423847214 2.312535423847214 2.312535423847214
          2.312535423847214 2.312535423847214 2.312535423847214 2.312535423847214 2.312535423847214 2.312535423847214
          2.312535423847214 2.312535423847214 2.312535423847214 2.312535423847214 2.312535423847214 2.312535423847214
          2.312535423847214 2.312535423847214 2.312535423847214 2.312535423847214 2.312535423847214 2.312535423847214
          2.312535423847214 2.312535423847214 2.312535423847214 2.312535423847214 2.312535423847214 2.312535423847214
          2.312535423847214 2.312535423847214 2.312535423847214 2.312535423847214 2.312535423847214 2.312535423847214
          2.312535423847214 2.312535423847214 2.312535423847214 2.312535423847214 2.312535423847214 2.312535423847214
          1.6400221772416381 1.735315386069649 2.072550925620946 2.312535423847214 2.312535423847214 2.312535423847214
          2.312535423847214 2.312535423847214 2.312535423847214 2.312535423847214 2.312535423847214 2.312535423847214
          2.312535423847214 2.312535423847214 2.312535423847214 2.312535423847214 2.312535423847214 2.312535423847214
          2.312535423847214 2.312535423847214 2.312535423847214 2.312535423847214 2.312535423847214 2.312535423847214
          2.312535423847214 2.312535423847214 2.312535423847214 2.312535423847214 2.312535423847214 2.312535423847214
          2.312535423847214 1.3922958727759471 1.420304550413376 1.4515729928867145 1.5339019880940352 1.8415813786326094
          2.312535423847214 2.312535423847214 2.312535423847214 2.312535423847214 2.312535423847214 2.312535423847214
          2.312535423847214 2.312535423847214 2.312535423847214 2.312535423847214 2.312535423847214 2.312535423847214
          2.312535423847214 2.312535423847214 2.312535423847214 2.312535423847214 2.312535423847214 2.312535423847214
          2.312535423847214 2.312535423847214 2.312535423847214 2.312535423847214 2.312535423847214 2.312535423847214
          2.312535423847214 2.312535423847214 1.1987130818221619 1.2179377131066382 1.2462107378014462 1.2770674927536254
          1.3179046984957907 1.4277380501654329 1.7421422748928654 2.301965301048142 2.312535423847214 2.312535423847214
          2.312535423847214 2.312535423847214 2.312535423847214 2.312535423847214 2.312535423847214 2.312535423847214
          2.312535423847214 2.312535423847214 2.312535423847214 2.312535423847214 2.312535423847214 2.312535423847214
          2.312535423847214 2.312535423847214 2.312535423847214 2.312535423847214 2.312535423847214 2.312535423847214
          2.312535423847214 2.312535423847214 2.312535423847214 1.0933615568973483 1.08994148273812 1.0984697362411495
          1.1187570365270816 1.1477024130765554 1.1840553637525628 1.2446151111701245 1.382937221607675 1.7092758952641445
          2.274630018284452 2.312535423847214 2.312535423847214 2.312535423847214 2.312535423847214 2.312535423847214
          2.312535423847214 2.312535423847214 2.312535423847214 2.312535423847214 2.312535423847214 2.312535423847214
          2.312535423847214 2.312535423847214 2.312535423847214 2.312535423847214 2.312535423847214 2.312535423847214
          2.312535423847214 2.312535423847214 2.312535423847214 2.312535423847214 1.0491490772562215 1.028111480846069
          1.0200929970417103 1.0251213753533883 1.0417926426208235 1.0675807970295152 1.0985308100273636 1.1440293051013701
          1.2147981248201705 1.3743445627420223 1.857768267515936 2.312535423847214 2.312535423847214 2.312535423847214
          2.312535423847214 2.312535423847214 2.312535423847214 2.312535423847214 2.312535423847214 2.312535423847214
          2.312535423847214 2.312535423847214 2.312535423847214 2.312535423847214 2.312535423847214 2.312535423847214
          2.312535423847214 2.312535423847214 2.312535423847214 2.312535423847214 2.312535423847214 1.0420078260728507
          1.008625613205424 0.9857878291638712 0.9752757097147581 0.9779885263422599 0.9935826980549558 1.0194259425965146
          1.0494785474164248 1.0849165560773146 1.1213736455836534 1.2048279186529487 1.5439902366041607 2.2422288545969673
          2.312535423847214 2.312535423847214 2.312535423847214 2.312535423847214 2.312535423847214 2.312535423847214
          2.312535423847214 2.312535423847214 2.312535423847214 2.312535423847214 2.312535423847214 2.312535423847214
          2.312535423847214 2.312535423847214 2.312535423847214 2.312535423847214 2.312535423847214 2.312535423847214
          1.0547928800811281 1.0148986218259506 0.9822510325697514 0.9589706717078751 0.9469254000679435 0.947453498352254
          0.9606413291425115 0.9849617896013771 1.0147785837450212 1.0449047393555493 1.0631378611830673 1.0934962444704122
          1.294736831168748 1.8424811836943755 2.312535423847214 2.312535423847214 2.312535423847214 2.312535423847214
          2.312535423847214 2.312535423847214 2.312535423847214 2.312535423847214 2.312535423847214 2.312535423847214
          2.312535423847214 2.312535423847214 2.312535423847214 2.312535423847214 2.312535423847214 2.312535423847214
          2.312535423847214 1.0739597141988297 1.0324406230166459 0.9950904083463321 0.9638138279278943 0.9406450405331707
          0.9276514814350151 0.9262666563746057 0.936840561048507 0.957795947633117 0.9847852892411499 1.0113920181243472
          1.022595845509295 1.0232477531695827 1.117459358850983 1.5114232345465068 2.310420321900914 2.312535423847214
          2.312535423847214 2.312535423847214 2.312535423847214 2.312535423847214 2.312535423847214 2.312535423847214
          2.312535423847214 2.312535423847214 2.312535423847214 2.312535423847214 2.312535423847214 2.312535423847214
          2.312535423847214 2.312535423847214 1.0914621682060528 1.0515210659361072 1.013811106668215 0.9793509820477023
          0.9496948104653836 0.9267803783119665 0.9125860536181967 0.9087269571211437 0.9157363063581427 0.9322381006891429
          0.9547539789621821 0.9778494996163117 0.9891093566361251 0.9785970243961073 1.0207557529463627 1.295025162873953
          1.9644543980590017 2.312535423847214 2.312535423847214 2.312535423847214 2.312535423847214 2.312535423847214
          2.312535423847214 2.312535423847214 2.312535423847214 2.312535423847214 2.312535423847214 2.312535423847214
          2.312535423847214 2.312535423847214 2.312535423847214 1.1041800364481713 1.0668729762039293 1.0309457060083087
          0.9968769022154427 0.9654368737032717 0.9377192696802403 0.915252276759059 0.8998365884779658 0.893002830727566
          0.8954927499713753 0.9061270090834043 0.9221689091597364 0.9396888473263302 0.9514450016377975 0.9358973548792623
          0.9537734873655912 1.2013060651664953 1.871932940164729 2.312535423847214 2.312535423847214 2.312535423847214
          2.312535423847214 2.312535423847214 2.312535423847214 2.312535423847214 2.312535423847214 2.312535423847214
          2.312535423847214 2.312535423847214 2.312535423847214 2.312535423847214 1.1118643002859405 1.0774942116702095
          1.0440218558595769 1.0117227716238606 0.9809795410286006 0.952320525891453 0.9266077383736285 0.9048655396447675
          0.8884818429533083 0.8788392151840063 0.8765220018145746 0.88078258198819 0.8887726731124711 0.8972470016562546
          0.8990145134414191 0.8846498533201523 0.8960838235540595 1.1338395433694948 1.7918052676889737 2.312535423847214
          2.312535423847214 2.312535423847214 2.312535423847214 2.312535423847214 2.312535423847214 2.312535423847214
          2.312535423847214 2.312535423847214 2.312535423847214 2.312535423847214 2.312535423847214 1.114494278551961
          1.0833392519701188 1.0528151199777547 1.0230933649564844 0.9943024464511729 0.9667218667680173 0.9407744923579966
          0.9169924268517857 0.8960535898593159 0.8789702471037355 0.8669135473203231 0.8603973704662061 0.8585908996467235
          0.858794568239781 0.8572375307503529 0.849575320731751 0.8341006125364003 0.8488297880406706 1.0749367127748013
          1.728881261173385 2.312535423847214 2.312535423847214 2.312535423847214 2.312535423847214 2.312535423847214
          2.312535423847214 2.312535423847214 2.312535423847214 2.312535423847214 2.312535423847214 2.312535423847214
          1.112675171976336 1.0845820451802994 1.0571743120629082 1.0304401992833452 1.0044739500530784 0.9792834452665422
          0.9550163942967755 0.9318490276733512 0.9100374185692577 0.8901151945228353 0.8728956155083096 0.8591657002248896
          0.8492161565220071 0.8421365315635871 0.8356739605699842 0.8266603322563463 0.8135852818190709 0.7983832814923442
          0.8199877369279476 1.044532451761187 1.685327314868747 2.312535423847214 2.312535423847214 2.312535423847214
          2.312535423847214 2.312535423847214 2.312535423847214 2.312535423847214 2.312535423847214 2.312535423847214
          2.312535423847214 1.107336234039339 1.0819982567280992 1.0576379575773143 1.0341091238933422 1.0113304897917386
          0.989240078761228 0.967810578584461 0.9470604908291139 0.9268932591673738 0.9074464250669694 0.8890246982034422
          0.872195123649044 0.857535762953779 0.8449232579490176 0.8336334738851543 0.8220316972075835 0.8090206676462379
          0.7946616276038934 0.7833703279207572 0.8161346630664946 1.027881072609291 1.5856238569985037 2.312535423847214
          2.312535423847214 2.312535423847214 2.312535423847214 2.312535423847214 2.312535423847214 2.312535423847214
          2.312535423847214 2.312535423847214 1.0991095768549026 1.076071958732073 1.054374771199539 1.0338364318328426
          1.0143098071381516 0.9956447079290651 0.9777392979615588 0.9603664782721233 0.9434020097348327 0.9266137153429046
          0.9099854767650891 0.8935893360871464 0.8777051211388147 0.8626202140399795 0.8482838097153618 0.8341249203659522
          0.8195607218644096 0.8053259113978057 0.793218421584205 0.7882580874284622 0.8172628171009592 0.9590176798121092
          1.3831045408892266 2.2682380788397496 2.312535423847214 2.312535423847214 2.312535423847214 2.312535423847214
          2.312535423847214 2.312535423847214 2.312535423847214 1.0892241622362084 1.0681143657137555 1.0486279515413697
          1.0306837568272524 1.014105061274741 0.9986649546822024 0.9841825833170476 0.9704652820916332 0.9571665247519401
          0.9440278891953604 0.9308211209556994 0.9173217440826398 0.9033562173949521 0.8889486888199495 0.8740939476630708
          0.8587625904311145 0.8429663635442848 0.8274929563692026 0.8140704277834829 0.8052342518487079 0.8041027010956208
          0.8195857971669394 0.8877603490960013 1.204722142833057 2.2804360288278502 2.312535423847214 2.312535423847214
          2.312535423847214 2.312535423847214 2.312535423847214 2.312535423847214 1.0789195544270949 1.0594732768484074
          1.0419004271958532 1.0261076534065927 1.0119949650828162 0.9993398670623845 0.9877937558124121 0.9772550611776308
          0.9674867735469739 0.9581521280215239 0.9488869962418743 0.9392623082202313 0.9288917746193041 0.9175586304486985
          0.90505447513105 0.891140958023543 0.8758485658243532 0.8599527169783353 0.8453317824987431 0.8343931780274744
          0.8293407767818978 0.8316000105207384 0.8439633917062482 0.9001324291585883 1.383092547360053 2.312535423847214
          2.312535423847214 2.312535423847214 2.312535423847214 2.312535423847214 2.312535423847214 1.069251490420198
          1.0511487847031922 1.0350939360007811 1.0210187114483769 1.008763011777213 0.9981757815915805 0.9890617764649348
          0.9811731518204365 0.97434756568851 0.9683362737168013 0.9627974394121281 0.95722919993337 0.9512569843871292
          0.9444072312052897 0.9361764230721299 0.9262379324045091 0.91433553681329 0.9007647391941418 0.8870179982432491
          0.8755694824073748 0.8691187207250729 0.8694927108838595 0.8768182449264611 0.8943182188930779 1.030196501253001
          2.015207030722971 2.312535423847214 2.312535423847214 2.312535423847214 2.312535423847214 2.312535423847214
          1.0604455721519563 1.0435133514833748 1.0287064478541441 1.0159844376685487 1.0052817384253967 0.9964489557589256
          0.9893259215423302 0.9837127527079761 0.9793835543141587 0.9760958091148941 0.9736398785610355 0.9717220037243243
          0.9700036781836535 0.9680743952918586 0.9653112641427005 0.9611195056612949 0.9551094767955112 0.9472232029531762
          0.9382756923167249 0.9301841112397364 0.9257537257265472 0.927695013254018 0.9372501387049389 0.9543866544152048
          1.0007974131079802 1.49369622322714 2.312535423847214 2.312535423847214 2.312535423847214 2.312535423847214
          2.312535423847214 1.0533589276441626 1.0372416746399868 1.023499704433722 1.011967833351515 1.0025401078374483
          0.9951248429493795 0.989571960588326 0.985779459326741 0.9835979568945323 0.9827859907058911 0.9831558295771098
          0.9846248079525368 0.9870594947906686 0.9900111631996114 0.9929705798356153 0.9953528247186488 0.9966896060651652
          0.9967830003922549 0.9960139925432261 0.9955170651450058 0.9976400170562488 1.005493485061256 1.021921124350482
          1.0488986437935004 1.0939444146668238 1.3123054608211135 2.312535423847214 2.312535423847214 2.312535423847214
          2.312535423847214 2.312535423847214 1.0488563538985782 1.0333400818365877 1.0204413234097995 1.0099752336521834
          1.0017558444582633 0.9956417467607103 0.9915772931020671 0.9895339920349823 0.9893673736681887 0.9909457516792433
          0.9941727593680477 0.9990209826561968 1.0054051010901195 1.013085647369327 1.0216200280505179 1.0305283442952318
          1.0395520722598082 1.048532398716307 1.0575059745453463 1.0671863580563967 1.0791895256920039 1.096353917203364
          1.1223291175305996 1.1613756572256833 1.222234238966806 1.3680794598790855 2.060494495642042 2.312535423847214
          2.312535423847214 2.312535423847214 2.312535423847214 1.0482030501845747 1.0331881712415558 1.0210495556416816
          1.0115548828981136 1.0045048638355225 0.9997459066801695 0.9972385098659868 0.99694296927592 0.9988870486347641
          1.0029958966082981 1.009200216262724 1.017486773483223 1.027932273356675 1.0404522852735887 1.0546164907638504
          1.0701129665251303 1.086718436926174 1.1042878105282536 1.1228633590859711 1.1430184566060926 1.1657684257320664
          1.1931846077266814 1.2286734669744164 1.277745244731309 1.3512654407518105 1.4946882737882128 1.9347621652843996
          2.312535423847214 2.312535423847214 2.312535423847214 2.312535423847214 1.053416929128439 1.0386328992150087
          1.0271401661638058 1.0185618208317795 1.0126483811901446 1.0092835427611602 1.008476638549698 1.0102211699893275
          1.0145395200619975 1.0214430518647957 1.0309778300198726 1.0432832214018215 1.0583538928483065 1.0760562554750344
          1.0961980748669895 1.1186225940674313 1.1429755287636036 1.1691345880942852 1.1971150146575804 1.226982719894751
          1.2594201824248514 1.2959286948676552 1.3394659202703483 1.3963821026573051 1.4794556906422833 1.6291301874646476
          2.0292506057804363 2.312535423847214 2.312535423847214 2.312535423847214 2.312535423847214 1.0673705837602043
          1.0525887361537987 1.041543774719504 1.0337453905955603 1.0289123616383857 1.0269472470328267 1.0278499810677817
          1.031748912199539 1.038768868816068 1.0490625193030396 1.0628111228986443 1.0800607173421486 1.1007730339356536
          1.1248653512087847 1.1521953138351868 1.1824932815612272 1.215511210556961 1.2511566576190538 1.2891761490175289
          1.3291502825402433 1.3710589379773872 1.4155978260402107 1.4661429342677907 1.5308361596724227 1.6253727913650293
          1.7906583110620242 2.189222497199979 2.312535423847214 2.312535423847214 2.312535423847214 2.312535423847214
          1.0930032101079172 1.0775762044739552 1.0665245136888062 1.0593157657769223 1.0555460673292296 1.0551123086176692
          1.0581404331772144 1.0648640212211629 1.075552153740085 1.0905434079113625 1.1099591700680793 1.1337786801138015
          1.161956016448334 1.1944152059441042 1.2308732652999328 1.2710133400316608 1.3146132372714594 1.3612904790676004
          1.410535748243805 1.4613745401015132 1.5129512446660363 1.5659996884331908 1.6249091356863978 1.7002315801772618
          1.8129983744466278 2.005560324721302 2.312535423847214 2.312535423847214 2.312535423847214 2.312535423847214
          2.312535423847214 
        </DataArray>
      </PointData>
      <CellData>
        <DataArray type="Float32" Name="averaged zvalue" NumberOfComponents="1" format="ascii" RangeMin="0.7941440721266654" RangeMax="2.312535423847214">
          2.312535423847214 2.312535423847214 2.312535423847214 2.312535423847214 2.312535423847214 2.312535423847214
          2.312535423847214 2.312535423847214 2.312535423847214 2.312535423847214 2.312535423847214 2.312535423847214
          2.312535423847214 2.312535423847214 2.312535423847214 2.312535423847214 2.312535423847214 2.312535423847214
          2.312535423847214 2.312535423847214 2.312535423847214 2.312535423847214 2.312535423847214 2.312535423847214
          2.312535423847214 2.312535423847214 2.312535423847214 2.312535423847214 2.312535423847214 2.312535423847214
          2.312535423847214 2.312535423847214 2.312535423847214 2.312535423847214 2.312535423847214 2.312535423847214
          2.312535423847214 2.312535423847214 2.312535423847214 2.312535423847214 2.312535423847214 2.312535423847214
          2.312535423847214 2.312535423847214 2.312535423847214 2.312535423847214 2.312535423847214 2.312535423847214
          2.312535423847214 2.312535423847214 2.312535423847214 2.312535423847214 2.312535423847214 2.312535423847214
          2.312535423847214 2.312535423847214 2.312535423847214 2.312535423847214 2.312535423847214 2.312535423847214
          2.312535423847214 2.312535423847214 2.312535423847214 2.312535423847214 2.312535423847214 2.312535423847214
          2.312535423847214 2.312535423847214 2.312535423847214 2.312535423847214 2.312535423847214 2.312535423847214
          2.312535423847214 2.312535423847214 2.312535423847214 2.312535423847214 2.312535423847214 2.312535423847214
          2.312535423847214 2.312535423847214 2.312535423847214 2.312535423847214 2.312535423847214 2.312535423847214
          2.312535423847214 2.312535423847214 2.312535423847214 2.312535423847214 2.312535423847214 2.312535423847214
          2.312535423847214 2.312535423847214 2.312535423847214 2.312535423847214 2.312535423847214 2.312535423847214
          2.312535423847214 2.312535423847214 2.312535423847214 2.312535423847214 2.312535423847214 2.312535423847214
          2.312535423847214 2.312535423847214 2.312535423847214 2.312535423847214 2.312535423847214 2.312535423847214
          2.312535423847214 2.312535423847214 2.312535423847214 2.312535423847214 2.312535423847214 2.312535423847214
          2.312535423847214 2.312535423847214 2.312535423847214 2.312535423847214 2.312535423847214 2.312535423847214
          2.312535423847214 2.312535423847214 2.312535423847214 2.312535423847214 2.312535423847214 2.312535423847214
          2.312535423847214 2.312535423847214 2.312535423847214 2.312535423847214 2.312535423847214 2.312535423847214
          2.312535423847214 2.312535423847214 2.312535423847214 2.312535423847214 2.312535423847214 2.312535423847214
          2.312535423847214 2.312535423847214 2.312535423847214 2.312535423847214 2.312535423847214 2.312535423847214
          2.312535423847214 2.312535423847214 2.312535423847214 2.312535423847214 2.312535423847214 2.312535423847214
          2.0001021027514287 2.108234289846256 2.252539299290647 2.312535423847214 2.312535423847214 2.312535423847214
          2.312535423847214 2.312535423847214 2.312535423847214 2.312535423847214 2.312535423847214 2.312535423847214
          2.312535423847214 2.312535423847214 2.312535423847214 2.312535423847214 2.312535423847214 2.312535423847214
          2.312535423847214 2.312535423847214 2.312535423847214 2.312535423847214 2.312535423847214 2.312535423847214
          2.312535423847214 2.312535423847214 2.312535423847214 2.312535423847214 2.312535423847214 2.312535423847214
          1.5469844966251527 1.6699359637476714 1.8426403326122274 2.000138553605268 2.1947969125435627 2.312535423847214
          2.312535423847214 2.312535423847214 2.312535423847214 2.312535423847214 2.312535423847214 2.312535423847214
          2.312535423847214 2.312535423847214 2.312535423847214 2.312535423847214 2.312535423847214 2.312535423847214
          2.312535423847214 2.312535423847214 2.312535423847214 2.312535423847214 2.312535423847214 2.312535423847214
          2.312535423847214 2.312535423847214 2.312535423847214 2.312535423847214 2.312535423847214 2.312535423847214
          1.307312804529531 1.3340064985520437 1.3771883028839553 1.492613889494015 1.7249398877852617 1.9487377931881813
          2.1672946059088587 2.309892893147446 2.312535423847214 2.312535423847214 2.312535423847214 2.312535423847214
          2.312535423847214 2.312535423847214 2.312535423847214 2.312535423847214 2.312535423847214 2.312535423847214
          2.312535423847214 2.312535423847214 2.312535423847214 2.312535423847214 2.312535423847214 2.312535423847214
          2.312535423847214 2.312535423847214 2.312535423847214 2.312535423847214 2.312535423847214 2.312535423847214
          1.1499884586410671 1.1631399174718384 1.1851262508308256 1.2153579102132634 1.2693501313725855 1.3996376999952465
          1.6679149771797017 1.9266784604417937 2.152244190310756 2.303059072456523 2.312535423847214 2.312535423847214
          2.312535423847214 2.312535423847214 2.312535423847214 2.312535423847214 2.312535423847214 2.312535423847214
          2.312535423847214 2.312535423847214 2.312535423847214 2.312535423847214 2.312535423847214 2.312535423847214
          2.312535423847214 2.312535423847214 2.312535423847214 2.312535423847214 2.312535423847214 2.312535423847214
          1.0651408994344396 1.0591539242167622 1.0656102862908323 1.0833433668944623 1.1102828041198642 1.1486955204948917
          1.2175281119766335 1.36276013669834 1.6432621502776974 1.9548195680974059 2.198843634764394 2.312535423847214
          2.312535423847214 2.312535423847214 2.312535423847214 2.312535423847214 2.312535423847214 2.312535423847214
          2.312535423847214 2.312535423847214 2.312535423847214 2.312535423847214 2.312535423847214 2.312535423847214
          2.312535423847214 2.312535423847214 2.312535423847214 2.312535423847214 2.312535423847214 2.312535423847214
          1.0319734993451415 1.0106544800642687 1.0015694778184319 1.0050445635078074 1.0202361660118886 1.0447800619270873
          1.0778661512854182 1.12330563335382 1.1988582223057902 1.3895785986236402 1.7297804616550647 2.102822484723889
          2.2949587815346524 2.312535423847214 2.312535423847214 2.312535423847214 2.312535423847214 2.312535423847214
          2.312535423847214 2.312535423847214 2.312535423847214 2.312535423847214 2.312535423847214 2.312535423847214
          2.312535423847214 2.312535423847214 2.312535423847214 2.312535423847214 2.312535423847214 2.312535423847214
          1.0300812352963382 0.9978907741912494 0.9755713107890639 0.9647900769582091 0.9664875307043532 0.980275867036559
          1.003626902189207 1.0335338692100344 1.0664933811903845 1.1085610411938047 1.2263630652276472 1.543613041710072
          1.922995573326826 2.1950218638090044 2.312535423847214 2.312535423847214 2.312535423847214 2.312535423847214
          2.312535423847214 2.312535423847214 2.312535423847214 2.312535423847214 2.312535423847214 2.312535423847214
          2.312535423847214 2.312535423847214 2.312535423847214 2.312535423847214 2.312535423847214 2.312535423847214
          1.0440229597806385 1.00617017143967 0.9750314851379632 0.9525887350592208 0.9406688550970957 0.9405032413260966
          0.9521775840417503 0.9735942205070056 1.0005661399937094 1.0260549769760283 1.0476554923217805 1.1085191685795095
          1.3194812817209223 1.6959748002347697 2.111728601035462 2.3120066483606387 2.312535423847214 2.312535423847214
          2.312535423847214 2.312535423847214 2.312535423847214 2.312535423847214 2.312535423847214 2.312535423847214
          2.312535423847214 2.312535423847214 2.312535423847214 2.312535423847214 2.312535423847214 2.312535423847214
          1.062345892839409 1.023215800991825 0.988016581247536 0.9583761652435377 0.936192927686384 0.923321142434946
          0.9211050570406133 0.9297749430402277 0.9476389109803882 0.9707923467542056 0.991647835553034 1.0032006137328286
          1.0271033732631996 1.15705884268499 1.5344061180669342 1.9706088266702706 2.225515167400161 2.312535423847214
          2.312535423847214 2.312535423847214 2.312535423847214 2.312535423847214 2.312535423847214 2.312535423847214
          2.312535423847214 2.312535423847214 2.312535423847214 2.312535423847214 2.312535423847214 2.312535423847214
          1.078509061698565 1.0407877137041401 1.0052461742349172 0.9728398921079502 0.9449078330402155 0.9230844945923656
          0.9091004689940914 0.9043256706712046 0.9091174969365567 0.9221529596765261 0.9402248492054086 0.9572041531846259
          0.96471005749909 0.9716737834648824 1.0513629395162922 1.3536397783662604 1.83755720680936 2.2023848029265927
          2.312535423847214 2.312535423847214 2.312535423847214 2.312535423847214 2.312535423847214 2.312535423847214
          2.312535423847214 2.312535423847214 2.312535423847214 2.312535423847214 2.312535423847214 2.312535423847214
          1.0901028811520628 1.0548336874355062 1.0208918089267973 0.9887540221427938 0.9591140525758913 0.9329749526760952
          0.9116405358138552 0.896546700450902 0.888954159709064 0.8892452440133402 0.8964001255114763 0.9078532528966818
          0.9192883809332133 0.9209009679036835 0.9183338022516062 0.9839533073515746 1.2757905930636948 1.777528293767603
          2.1823528848076537 2.312535423847214 2.312535423847214 2.312535423847214 2.312535423847214 2.312535423847214
          2.312535423847214 2.312535423847214 2.312535423847214 2.312535423847214 2.312535423847214 2.312535423847214
          1.0967980106195574 1.064417609869415 1.0329132781044192 1.0025245310150297 0.9735810950348109 0.9466061558477739
          0.9223100493070446 0.9015983498272943 0.8855862237750916 0.8753112528556599 0.8711538753973235 0.8721358813033977
          0.8758512856638077 0.878073403521952 0.8726193045609189 0.8661024025355908 0.9282134418751562 1.212352827968485
          1.7270396663710934 2.1666218831787565 2.312535423847214 2.312535423847214 2.312535423847214 2.312535423847214