<VTKFile type="PolyData" version="1.0" byte_order="LittleEndian" header_type="UInt64">
  <PolyData>
    <Piece NumberOfPoints="961" NumberOfVerts="0" NumberOfLines="0" NumberOfStrips="0" NumberOfPolys="900">
      <PointData>
        <DataArray type="Float32" Name="zvalue" NumberOfComponents="1" format="ascii" RangeMin="0.3878846423054959" RangeMax="2.312535423847214">
          0.93910303909859 0.9255331511265115 0.9195585711757414 0.9309305500595805 0.9623196985570944 1.007317006162825
          1.0479726967788836 1.0073867085251176 0.922523731519888 1.130561010893276 1.7664945831274028 2.312535423847214
          2.312535423847214 2.312535423847214 2.312535423847214 2.312535423847214 2.312535423847214 2.312535423847214
          2.312535423847214 2.312535423847214 2.312535423847214 2.312535423847214 2.312535423847214 2.312535423847214
          2.312535423847214 2.312535423847214 2.312535423847214 2.312535423847214 2.312535423847214 2.312535423847214
          2.312535423847214 0.9563712029987236 0.9393549861934825 0.9213230984515965 0.9061951015144141 0.9004938987186637
          0.907832005288296 0.9270045539593085 0.9533878665571258 0.941148292214224 0.8912096390346871 1.1263751841545686
          1.8158788101280765 2.312535423847214 2.312535423847214 2.312535423847214 2.312535423847214 2.312535423847214
          2.312535423847214 2.312535423847214 2.312535423847214 2.312535423847214 2.312535423847214 2.312535423847214
          2.312535423847214 2.312535423847214 2.312535423847214 2.312535423847214 2.312535423847214 2.312535423847214
          2.312535423847214 2.312535423847214 0.9743195276589508 0.9591604794393198 0.9411422522005426 0.920832375331784
          0.8999270690767437 0.8804450063077222 0.8645073989995987 0.8550739423923535 0.8588379876497964 0.860308529300085
          0.8653395256705857 1.1821109165678736 1.9560885874625222 2.312535423847214 2.312535423847214 2.312535423847214
          2.312535423847214 2.312535423847214 2.312535423847214 2.312535423847214 2.312535423847214 2.312535423847214
          2.312535423847214 2.312535423847214 2.312535423847214 2.312535423847214 2.312535423847214 2.312535423847214
          2.312535423847214 2.312535423847214 2.312535423847214 0.9907750730224154 0.9772881239894132 0.9614308200237652
          0.942845035348066 0.9213797797187929 0.8964138893820792 0.8663788942704053 0.8305300791942352 0.7937412592445342
          0.7759961727846011 0.7842063564774344 0.8788264665104781 1.3225555516625063 2.2086608179118805 2.312535423847214
          2.312535423847214 2.312535423847214 2.312535423847214 2.312535423847214 2.312535423847214 2.312535423847214
          2.312535423847214 2.312535423847214 2.312535423847214 2.312535423847214 2.312535423847214 2.312535423847214
          2.312535423847214 2.312535423847214 2.312535423847214 2.312535423847214 1.005544835119195 0.9932123551078476
          0.9786437021239079 0.9618430592821061 0.942504689103871 0.9194421094826667 0.889734737468543 0.8484085870126986
          0.7917113535041745 0.7284418957332236 0.7017229639767547 0.7369529854446331 0.9760260202188896 1.5794874639901502
          2.312535423847214 2.312535423847214 2.312535423847214 2.312535423847214 2.312535423847214 2.312535423847214
          2.312535423847214 2.312535423847214 2.312535423847214 2.312535423847214 2.312535423847214 2.312535423847214
          2.312535423847214 2.312535423847214 2.312535423847214 2.312535423847214 2.312535423847214 1.0173453980168583
          1.0063037011325713 0.9929418288666559 0.9773774090072417 0.9596138238242078 0.9388998953711258 0.9123698991650122
          0.8739995378748104 0.8147596546726268 0.7296542589655182 0.6487207006506813 0.6426412647151999 0.7744720632617556
          1.1814641815317926 1.9490460545747896 2.312535423847214 2.312535423847214 2.312535423847214 2.312535423847214
          2.312535423847214 2.312535423847214 2.312535423847214 2.312535423847214 2.312535423847214 2.312535423847214
          2.312535423847214 2.312535423847214 2.312535423847214 2.312535423847214 2.312535423847214 2.312535423847214
          1.0264755275348867 1.0160389315796519 1.003618622476054 0.9892960149472507 0.9729717545339541 0.9538994650985313
          0.9297917276654797 0.895090953400202 0.8394477214064108 0.7494616632304323 0.6351554707835873 0.5741775913938018
          0.6468342984992561 0.9414889457437003 1.4933306563608406 2.312535423847214 2.312535423847214 2.312535423847214
          2.312535423847214 2.312535423847214 2.312535423847214 2.312535423847214 2.312535423847214 2.312535423847214
          2.312535423847214 2.312535423847214 2.312535423847214 2.312535423847214 2.312535423847214 2.312535423847214
          2.312535423847214 1.0333437566712926 1.0232923398088343 1.0114300372058902 0.99801708944416 0.9828126482181553
          0.9650250823406165 0.9424111340258077 0.9102820418177445 0.8587125032181848 0.7711018985190954 0.642099206364516
          0.5348205153951744 0.5611648464879163 0.7649091617309928 1.2017469517634305 1.9074280323962056 2.312535423847214
          2.312535423847214 2.312535423847214 2.312535423847214 2.312535423847214 2.312535423847214 2.312535423847214
          2.312535423847214 2.312535423847214 2.312535423847214 2.312535423847214 2.312535423847214 2.312535423847214
          2.312535423847214 2.312535423847214 1.039143279709323 1.0293103386159839 1.0177188948236706 1.0047248442611256
          0.9901624295395867 0.9730739317025392 0.9513385485629592 0.9208071465301454 0.8724859017903577 0.7889558589874699
          0.655949955835988 0.5180250290439093 0.4977185819992355 0.6505452353077336 0.982097790881191 1.5224492255057636
          2.312535423847214 2.312535423847214 2.312535423847214 2.312535423847214 2.312535423847214 2.312535423847214
          2.312535423847214 2.312535423847214 2.312535423847214 2.312535423847214 2.312535423847214 2.312535423847214
          2.312535423847214 2.312535423847214 2.312535423847214 1.044091062249809 1.0343655208919516 1.0229628178183932
          1.0100992204065722 0.9957477102273822 0.9789348781626036 0.9575554278505493 0.9279611869161819 0.8819553318695283
          0.8024457074765171 0.6704272544369678 0.5143148630702336 0.4532084771266542 0.5691399339619357 0.8270821499833891
          1.2508005963912434 2.05221629540972 2.312535423847214 2.312535423847214 2.312535423847214 2.312535423847214
          2.312535423847214 2.312535423847214 2.312535423847214 2.312535423847214 2.312535423847214 2.312535423847214
          2.312535423847214 2.312535423847214 2.312535423847214 2.312535423847214 1.0476833265251824 1.0380946645776077
          1.0268642316865788 1.0142108772206633 0.9999003579244596 0.9831340379045356 0.9618261383927569 0.9327024794087517
          0.8882138677872167 0.8122483473438068 0.6833749059516016 0.5170854205292432 0.4237128763375929 0.5079818533988865
          0.727326544390954 1.061437165573794 1.671779955839884 2.312535423847214 2.312535423847214 2.312535423847214
          2.312535423847214 2.312535423847214 2.312535423847214 2.312535423847214 2.312535423847214 2.312535423847214
          2.312535423847214 2.312535423847214 2.312535423847214 2.312535423847214 2.312535423847214 1.0500623899937265
          1.0406422099873565 1.0295163035953074 1.017059943226461 1.002783822059697 0.9859190781213663 0.9645749966427513
          0.9356076829445958 0.8920902527019402 0.8190117903174061 0.6940352737135754 0.5227394482297593 0.40495847471504726
          0.4628977671763666 0.6652912931285293 0.9417412922807357 1.4141195048196138 2.312535423847214 2.312535423847214
          2.312535423847214 2.312535423847214 2.312535423847214 2.312535423847214 2.312535423847214 2.312535423847214
          2.312535423847214 2.312535423847214 2.312535423847214 2.312535423847214 2.312535423847214 2.312535423847214
          1.0517342757700876 1.0425402944739173 1.0315159441015915 1.01893701995288 1.004601719072434 0.9875861836433131
          0.9660929767230645 0.9370509040520887 0.8940877163521151 0.8233161646871023 0.7022862654281115 0.5292864649853972
          0.39361960324878775 0.4321306361641125 0.6312390035913016 0.8754437413966163 1.277535632825914 2.312535423847214
          2.312535423847214 2.312535423847214 2.312535423847214 2.312535423847214 2.312535423847214 2.312535423847214
          2.312535423847214 2.312535423847214 2.312535423847214 2.312535423847214 2.312535423847214 2.312535423847214
          2.312535423847214 1.0532760105965628 1.0441947714192221 1.0332127322053242 1.020329993407213 1.0056715938670466
          0.9884243162607127 0.9666296823943289 0.9373059904247508 0.8945508805027131 0.8255786961949734 0.7083347995658125
          0.5360063308091785 0.38808372825549814 0.41665434759384096 0.6226788649659956 0.8500874207945732 1.301255503792129
          2.312535423847214 2.312535423847214 2.312535423847214 2.312535423847214 2.312535423847214 2.312535423847214
          2.312535423847214 2.312535423847214 2.312535423847214 2.312535423847214 2.312535423847214 2.312535423847214
          2.312535423847214 2.312535423847214 1.054785995514061 1.0457748710618586 1.0346361425982844 1.0214398091190542
          1.0063124961171577 0.9885979409309745 0.9663325588792492 0.9365266763681953 0.893653956490612 0.8259236448336662
          0.7122679750772934 0.5424862863437573 0.3878846423054959 0.41798377746562493 0.6386829182074935 0.8557862332003889
          1.5044832744797818 2.312535423847214 2.312535423847214 2.312535423847214 2.312535423847214 2.312535423847214
          2.312535423847214 2.312535423847214 2.312535423847214 2.312535423847214 2.312535423847214 2.312535423847214
          2.312535423847214 2.312535423847214 2.312535423847214 1.0562638496457448 1.047247190935431 1.0359038720592457
          1.0223486861193867 1.0066155755781339 0.9881145007700131 0.9651651031391136 0.9347089722141689 0.891469889161713
          0.8245306521651825 0.7142400228092742 0.5486741101145987 0.393413244429428 0.43749048432055376 0.6744293923359458
          0.9100738880804647 1.7579015142509073 2.312535423847214 2.312535423847214 2.312535423847214 2.312535423847214
          2.312535423847214 2.312535423847214 2.312535423847214 2.312535423847214 2.312535423847214 2.312535423847214
          2.312535423847214 2.312535423847214 2.312535423847214 2.312535423847214 1.057587365175688 1.0483549721538972
          1.0366370490685992 1.0225593761350114 1.00605255514479 0.9866216837859386 0.9628811246295773 0.9316970232940306
          0.8879576434399481 0.8215936329266953 0.7147526295311676 0.5555553989811424 0.4071730468925025 0.4720213095755722
          0.7356346871858988 1.150070649743498 2.312535423847214 2.312535423847214 2.312535423847214 2.312535423847214
          2.312535423847214 2.312535423847214 2.312535423847214 2.312535423847214 2.312535423847214 2.312535423847214
          2.312535423847214 2.312535423847214 2.312535423847214 2.312535423847214 2.312535423847214 1.058175212285976
          1.0486029833440251 1.0363291908999737 1.0213993252840479 1.0039956486871393 0.9836869396622848 0.9591094713665937
          0.9271810109428537 0.88293567475139 0.8172557345192809 0.7144554272774662 0.5647345511942098 0.43384983310397446
          0.5427075587366862 0.9248168657121871 1.654135899253624 2.312535423847214 2.312535423847214 2.312535423847214
          2.312535423847214 2.312535423847214 2.312535423847214 2.312535423847214 2.312535423847214 2.312535423847214
          2.312535423847214 2.312535423847214 2.312535423847214 2.312535423847214 2.312535423847214 2.312535423847214
          1.0578794943483145 1.0476635340581393 1.0345999790190081 1.0186508267721606 1.0003261360757016 0.9791785927056894
          0.9536939296368288 0.9209551183675251 0.8762899936331235 0.8116355314557068 0.7140848913435349 0.5785496778270657
          0.4865507881200649 0.782510004492245 1.461811553422132 2.312535423847214 2.312535423847214 2.312535423847214
          2.312535423847214 2.312535423847214 2.312535423847214 2.312535423847214 2.312535423847214 2.312535423847214
          2.312535423847214 2.312535423847214 2.312535423847214 2.312535423847214 2.312535423847214 2.312535423847214
          2.312535423847214 1.0568790123988465 1.0457588566198872 1.0315737210532707 1.014486156724404 0.9951238246384242
          0.9729713051260425 0.9465434461350877 0.9130497467204877 0.8682273941319673 0.8054526729957948 0.7153743945874845
          0.6034687698878367 0.6445794249940514 1.3997834276565528 2.312535423847214 2.312535423847214 2.312535423847214
          2.312535423847214 2.312535423847214 2.312535423847214 2.312535423847214 2.312535423847214 2.312535423847214
          2.312535423847214 2.312535423847214 2.312535423847214 2.312535423847214 2.312535423847214 2.312535423847214
          2.312535423847214 2.312535423847214 1.0552207036876642 1.0428114942670335 1.0271250903659994 1.0086714495150402
          0.9881095141211244 0.9649875068766395 0.9376980065242907 0.9036775323547928 0.8593363695337628 0.7999607862035779
          0.7222374817646663 0.6678123582942322 1.1025481687336667 2.312535423847214 2.312535423847214 2.312535423847214
          2.312535423847214 2.312535423847214 2.312535423847214 2.312535423847214 2.312535423847214 2.312535423847214
          2.312535423847214 2.312535423847214 2.312535423847214 2.312535423847214 2.312535423847214 2.312535423847214
          2.312535423847214 2.312535423847214 2.312535423847214 1.0523021192966915 1.038239025691706 1.020924355938363
          1.0009911682327255 0.9792852843099941 0.955338128899163 0.9273981904796434 0.8933256007010633 0.8505508740233759
          0.7973354135605726 0.7450208584504867 0.8744747275214525 2.020452152374762 2.312535423847214 2.312535423847214
          2.312535423847214 2.312535423847214 2.312535423847214 2.312535423847214 2.312535423847214 2.312535423847214
          2.312535423847214 2.312535423847214 2.312535423847214 2.312535423847214 2.312535423847214 2.312535423847214
          2.312535423847214 2.312535423847214 2.312535423847214 2.312535423847214 1.0479191671809607 1.0318995235212145
          1.012822718152685 0.9916460980977433 0.9691351112280409 0.9444589902808705 0.9161937468856185 0.8827709406779588
          0.8431373294207396 0.8026373282757018 0.8235118411209543 1.4787916805969707 2.312535423847214 2.312535423847214
          2.312535423847214 2.312535423847214 2.312535423847214 2.312535423847214 2.312535423847214 2.312535423847214
          2.312535423847214 2.312535423847214 2.312535423847214 2.312535423847214 2.312535423847214 2.312535423847214
          2.312535423847214 2.312535423847214 2.312535423847214 2.312535423847214 2.312535423847214 1.0423746574427457
          1.024194659470557 1.0034043587452388 0.9812470658012546 0.9579924299667337 0.9328110903339447 0.9048048438843804
          0.8729505217586379 0.8397963354191199 0.8337308155280259 1.0760032531133994 2.312535423847214 2.312535423847214
          2.312535423847214 2.312535423847214 2.312535423847214 2.312535423847214 2.312535423847214 2.312535423847214
          2.312535423847214 2.312535423847214 2.312535423847214 2.312535423847214 2.312535423847214 2.312535423847214
          2.312535423847214 2.312535423847214 2.312535423847214 2.312535423847214 2.312535423847214 2.312535423847214
          1.0353806222353195 1.0153047795511887 0.9930252478685482 0.9699575552115164 0.9461231401017483 0.9210667418787505
          0.8939830851318328 0.8654160134585265 0.8493160244516992 0.9622965971623829 1.7310102306974595 2.312535423847214
          2.312535423847214 2.312535423847214 2.312535423847214 2.312535423847214 2.312535423847214 2.312535423847214
          2.312535423847214 2.312535423847214 2.312535423847214 2.312535423847214 2.312535423847214 2.312535423847214
          2.312535423847214 2.312535423847214 2.312535423847214 2.312535423847214 2.312535423847214 2.312535423847214
          2.312535423847214 1.026718545966859 1.0051599498917094 0.9819781322678149 0.9581697093878964 0.9342783897330811
          0.9100024709493654 0.8847002533065355 0.8650024192278963 0.9150553380468659 1.3935759713090967 2.312535423847214
          2.312535423847214 2.312535423847214 2.312535423847214 2.312535423847214 2.312535423847214 2.312535423847214
          2.312535423847214 2.312535423847214 2.312535423847214 2.312535423847214 2.312535423847214 2.312535423847214
          2.312535423847214 2.312535423847214 2.312535423847214 2.312535423847214 2.312535423847214 2.312535423847214
          2.312535423847214 2.312535423847214 1.0167040689274338 0.9942458531190947 0.970579857136485 0.9467240263064486
          0.923580026656875 0.9003698279335898 0.8802460444899034 0.8991812282319157 1.2390481470524495 2.312535423847214
          2.312535423847214 2.312535423847214 2.312535423847214 2.312535423847214 2.312535423847214 2.312535423847214
          2.312535423847214 2.312535423847214 2.312535423847214 2.312535423847214 2.312535423847214 2.312535423847214
          2.312535423847214 2.312535423847214 2.312535423847214 2.312535423847214 2.312535423847214 2.312535423847214
          2.312535423847214 2.312535423847214 2.312535423847214 1.005838556742234 0.9829720760510552 0.9594809733006076
          0.9368893697485802 0.9149651741451407 0.8956231557610067 0.902726827219563 1.1522998559456554 2.23403766017867
          2.312535423847214 2.312535423847214 2.312535423847214 2.312535423847214 2.312535423847214 2.312535423847214
          2.312535423847214 2.312535423847214 2.312535423847214 2.312535423847214 2.312535423847214 2.312535423847214
          2.312535423847214 2.312535423847214 2.312535423847214 2.312535423847214 2.312535423847214 2.312535423847214
          2.312535423847214 2.312535423847214 2.312535423847214 2.312535423847214 0.9950817515964504 0.9724211751692206
          0.9506316427618664 0.9300053142674456 0.9125690090920522 0.9177251912841513 1.1220525349269623 2.187829846711723
          2.312535423847214 2.312535423847214 2.312535423847214 2.312535423847214 2.312535423847214 2.312535423847214
          2.312535423847214 2.312535423847214 2.312535423847214 2.312535423847214 2.312535423847214 2.312535423847214
          2.312535423847214 2.312535423847214 2.312535423847214 2.312535423847214 2.312535423847214 2.312535423847214
          2.312535423847214 2.312535423847214 2.312535423847214 2.312535423847214 2.312535423847214 0.9855445832392561
          0.9643676272887233 0.9453049933222922 0.9307710251193747 0.9414714989555553 1.1353879130835578 2.210346883054046
          2.312535423847214 2.312535423847214 2.312535423847214 2.312535423847214 2.312535423847214 2.312535423847214
          2.312535423847214 2.312535423847214 2.312535423847214 2.312535423847214 2.312535423847214 2.312535423847214
          2.312535423847214 2.312535423847214 2.312535423847214 2.312535423847214 2.312535423847214 2.312535423847214
          2.312535423847214 2.312535423847214 2.312535423847214 2.312535423847214 2.312535423847214 2.312535423847214
          0.9775784002845568 0.9596727868757596 0.9486872174034126 0.9721376227526479 1.1780288716931349 2.2629513821421963
          2.312535423847214 2.312535423847214 2.312535423847214 2.312535423847214 2.312535423847214 2.312535423847214
          2.312535423847214 2.312535423847214 2.312535423847214 2.312535423847214 2.312535423847214 2.312535423847214
          2.312535423847214 2.312535423847214 2.312535423847214 2.312535423847214 2.312535423847214 2.312535423847214
          2.312535423847214 2.312535423847214 2.312535423847214 2.312535423847214 2.312535423847214 2.312535423847214
          2.312535423847214 
        </DataArray>
      </PointData>
      <CellData>
        <DataArray type="Float32" Name="averaged zvalue" NumberOfComponents="1" format="ascii" RangeMin="0.402651623905115" RangeMax="2.312535423847214">
          0.9400905948543268 0.9264424517368328 0.9195018303003331 0.9249848122124382 0.9444906521817198 0.9725315655473282
          0.9839379564551088 0.9561116497040888 0.9713606684155187 1.2286601043024836 1.7553210003143154 2.1883712704174294
          2.312535423847214 2.312535423847214 2.312535423847214 2.312535423847214 2.312535423847214 2.312535423847214
          2.312535423847214 2.312535423847214 2.312535423847214 2.312535423847214 2.312535423847214 2.312535423847214
          2.312535423847214 2.312535423847214 2.312535423847214 2.312535423847214 2.312535423847214 2.312535423847214
          0.9573015490726191 0.9402452040712352 0.9223732068745842 0.9068621111604014 0.8971744948478564 0.8949472411387314
          0.8999934404770966 0.9021120222033749 0.8878761120496981 0.9358082195399816 1.247426109130276 1.8166534345014216
          2.223423714751041 2.312535423847214 2.312535423847214 2.312535423847214 2.312535423847214 2.312535423847214
          2.312535423847214 2.312535423847214 2.312535423847214 2.312535423847214 2.312535423847214 2.312535423847214
          2.312535423847214 2.312535423847214 2.312535423847214 2.312535423847214 2.312535423847214 2.312535423847214
          0.9753858010275248 0.9597554189132602 0.9415626207260395 0.9212460648688466 0.8995414361213345 0.8769362972399514
          0.8541225787141482 0.8345458171202298 0.8222209872447541 0.8214626460581765 0.9276208163065929 1.334895380550845
          1.9499600952210308 2.2865667723633805 2.312535423847214 2.312535423847214 2.312535423847214 2.312535423847214
          2.312535423847214 2.312535423847214 2.312535423847214 2.312535423847214 2.312535423847214 2.312535423847214
          2.312535423847214 2.312535423847214 2.312535423847214 2.312535423847214 2.312535423847214 2.312535423847214
          0.9917050968097179 0.9776437503112335 0.9611906541944613 0.9421431408632089 0.9199351169218524 0.8929924076509235
          0.8587630744864705 0.8160978197389106 0.7724726703166334 0.7475918472430034 0.7754271931023251 0.9785902559591269
          1.5216824634458566 2.1033047823991144 2.312535423847214 2.312535423847214 2.312535423847214 2.312535423847214
          2.312535423847214 2.312535423847214 2.312535423847214 2.312535423847214 2.312535423847214 2.312535423847214
          2.312535423847214 2.312535423847214 2.312535423847214 2.312535423847214 2.312535423847214 2.312535423847214
          1.005601572344118 0.9927753968077456 0.9777014998199779 0.9603347453043567 0.9401151294454678 0.9151116603718369
          0.881128190380266 0.8322197832660776 0.7661417907188859 0.7021349548315445 0.6825094786968172 0.7825230834101196
          1.127862432250647 1.7556332809859865 2.221663081529108 2.312535423847214 2.312535423847214 2.312535423847214
          2.312535423847214 2.312535423847214 2.312535423847214 2.312535423847214 2.312535423847214 2.312535423847214
          2.312535423847214 2.312535423847214 2.312535423847214 2.312535423847214 2.312535423847214 2.312535423847214
          1.016540889565992 1.0047257710137334 0.9908084688243006 0.9748147505781636 0.9563462347069547 0.9337402468250373
          0.9028130295263761 0.8558244668385125 0.7833308245687469 0.6907480234075547 0.6251737568858176 0.6595313044675033
          0.8860648722591261 1.3913324595527807 2.0168618896575143 2.312535423847214 2.312535423847214 2.312535423847214
          2.312535423847214 2.312535423847214 2.312535423847214 2.312535423847214 2.312535423847214 2.312535423847214
          2.312535423847214 2.312535423847214 2.312535423847214 2.312535423847214 2.312535423847214 2.312535423847214
          1.0247876388986663 1.0135949827676076 1.0005904410183386 0.98577437678588 0.9686772375478142 0.9477818522826088
          0.9193939642273085 0.8758833049606356 0.8046809465935307 0.6994545597244077 0.5965631959842699 0.5792493129440371
          0.7285993131154664 1.1003689288997411 1.7287602660919226 2.211258575984462 2.312535423847214 2.312535423847214
          2.312535423847214 2.312535423847214 2.312535423847214 2.312535423847214 2.312535423847214 2.312535423847214
          2.312535423847214 2.312535423847214 2.312535423847214 2.312535423847214 2.312535423847214 2.312535423847214
          1.0312724287013584 1.0204379026135948 1.0079727164337116 0.9939292528657568 0.9777685229502244 0.9579621741579807
          0.9312097177341642 0.8905718983391081 0.8228140406287769 0.7145267299267672 0.587723676659897 0.5279322432315589
          0.6185844563814695 0.899824784920837 1.4034305001366476 2.0137370263990992 2.312535423847214 2.312535423847214
          2.312535423847214 2.312535423847214 2.312535423847214 2.312535423847214 2.312535423847214 2.312535423847214
          2.312535423847214 2.312535423847214 2.312535423847214 2.312535423847214 2.312535423847214 2.312535423847214
          1.0367275503667668 1.0260893930374997 1.0138764443274404 1.0001835511086667 0.9844797374080279 0.9652256965696628
          0.939415577464959 0.9008023917765533 0.8364607000309683 0.7294446941842356 0.5896792755967747 0.4958167378100081
          0.5426530570988898 0.7572162775335624 1.1456074406903967 1.784500385288485 2.24745564173784 2.312535423847214
          2.312535423847214 2.312535423847214 2.312535423847214 2.312535423847214 2.312535423847214 2.312535423847214
          2.312535423847214 2.312535423847214 2.312535423847214 2.312535423847214 2.312535423847214 2.312535423847214
          1.0410586435611378 1.0305718087436329 1.018534286783052 1.0049895414447692 0.9894292460547452 0.9703626205776112
          0.9450113081420599 0.9077082164954197 0.8462158136192672 0.7421240538022233 0.5963006109970115 0.477080409265931
          0.4885107852062673 0.6578826204337913 0.9666616140848451 1.5090585033036605 2.087266774736008 2.312535423847214
          2.312535423847214 2.312535423847214 2.312535423847214 2.312535423847214 2.312535423847214 2.312535423847214
          2.312535423847214 2.312535423847214 2.312535423847214 2.312535423847214 2.312535423847214 2.312535423847214
          1.0441206477709684 1.0337793524617125 1.0219128389322527 1.0084887501078201 0.9929343240025146 0.9738635627653525
          0.948677824347214 0.9121535707106262 0.8528910645375924 0.7521675793315975 0.6043087621060448 0.46712405495291065
          0.4498877429069733 0.590874364523684 0.8489490738435032 1.2722694796285068 1.9277425770884813 2.312535423847214
          2.312535423847214 2.312535423847214 2.312535423847214 2.312535423847214 2.312535423847214 2.312535423847214
          2.312535423847214 2.312535423847214 2.312535423847214 2.312535423847214 2.312535423847214 2.312535423847214
          1.046244792556272 1.036053688039543 1.02425730271906 1.010845626077868 0.9952227007242025 0.9760433087826238
          0.9508316400906252 0.9147091390126849 0.857126481014641 0.7596623735365489 0.6120868630892109 0.4626509977947479
          0.42340162032607853 0.5478896750150775 0.7784288325992957 1.12721004283072 1.8291814963349888 2.312535423847214
          2.312535423847214 2.312535423847214 2.312535423847214 2.312535423847214 2.312535423847214 2.312535423847214
          2.312535423847214 2.312535423847214 2.312535423847214 2.312535423847214 2.312535423847214 2.312535423847214
          1.0479363380649473 1.037865935550014 1.0259989224167523 1.0123850815748934 0.9965709532108766 0.9771832897553547
          0.9517698883985583 0.915748872832917 0.859383364434226 0.7648789814689999 0.6189784651971248 0.4617490318247154
          0.40762207881555984 0.5256757130788127 0.7448622576871217 1.0760805747023081 1.8009654960781176 2.312535423847214
          2.312535423847214 2.312535423847214 2.312535423847214 2.312535423847214 2.312535423847214 2.312535423847214
          2.312535423847214 2.312535423847214 2.312535423847214 2.312535423847214 2.312535423847214 2.312535423847214
          1.0495079121479263 1.0394546293211724 1.027404669332469 1.0134384731276178 0.9972515867939729 0.9774961246163163
          0.951698727016631 0.9155093759465679 0.8599267945054911 0.7680262789179364 0.6247738479490105 0.46361524692848244
          0.402651623905115 0.5239999770582388 0.7418088592921128 1.1279031080667181 1.8577024064915846 2.312535423847214
          2.312535423847214 2.312535423847214 2.312535423847214 2.312535423847214 2.312535423847214 2.312535423847214
          2.312535423847214 2.312535423847214 2.312535423847214 2.312535423847214 2.312535423847214 2.312535423847214
          1.0510179767892738 1.040890519163705 1.0285821274739928 1.0141791417334332 0.9974101283490698 0.9770525259298376
          0.9506833276501817 0.9140898735586723 0.8588945356627934 0.7692405737213541 0.6294170985862308 0.46811457079832
          0.40919303713027566 0.5421466430824045 0.7697431079560733 1.2570612275028856 1.971863909106279 2.312535423847214
          2.312535423847214 2.312535423847214 2.312535423847214 2.312535423847214 2.312535423847214 2.312535423847214
          2.312535423847214 2.312535423847214 2.312535423847214 2.312535423847214 2.312535423847214 2.312535423847214
          1.05236334447769 1.0420357710542933 1.0293622458455607 1.0143940482443305 0.9968510788197189 0.9756956030811607
          0.9486130558192226 0.9114583820274651 0.8563879544233848 0.7687792343580799 0.6333055403590457 0.4762039501044179
          0.4275245213045141 0.5798939683544926 0.8675521543364518 1.5326453689805208 2.173876946448137 2.312535423847214
          2.312535423847214 2.312535423847214 2.312535423847214 2.312535423847214 2.312535423847214 2.312535423847214
          2.312535423847214 2.312535423847214 2.312535423847214 2.312535423847214 2.312535423847214 2.312535423847214
          1.0531801332398967 1.0424810488666238 1.029231235346908 1.013501726312747 0.9950892068200382 0.9730748048610987
          0.9452171575582639 0.9074428381070556 0.8524356714093285 0.7670143560636525 0.6373745017459965 0.4903282075429573
          0.4639379370771838 0.6687951053025861 1.116164525473802 1.8573193491728874 2.312535423847214 2.312535423847214
          2.312535423847214 2.312535423847214 2.312535423847214 2.312535423847214 2.312535423847214 2.312535423847214