<VTKFile type="PolyData" version="1.0" byte_order="LittleEndian" header_type="UInt64">
  <PolyData>
    <Piece NumberOfPoints="961" NumberOfVerts="0" NumberOfLines="0" NumberOfStrips="0" NumberOfPolys="900">
      <PointData>
        <DataArray type="Float32" Name="zvalue" NumberOfComponents="1" format="ascii" RangeMin="0.8326757460291148" RangeMax="2.312535423847214">
          2.312535423847214 2.312535423847214 2.312535423847214 2.312535423847214 2.312535423847214 2.312535423847214
          2.312535423847214 2.312535423847214 2.312535423847214 2.312535423847214 2.312535423847214 2.312535423847214
          2.312535423847214 2.312535423847214 2.312535423847214 2.312535423847214 2.312535423847214 2.312535423847214
          2.312535423847214 2.312535423847214 2.312535423847214 2.312535423847214 2.312535423847214 2.312535423847214
          2.312535423847214 2.312535423847214 2.312535423847214 2.312535423847214 2.312535423847214 2.312535423847214
          2.312535423847214 2.312535423847214 2.312535423847214 2.312535423847214 2.312535423847214 2.312535423847214
          2.312535423847214 2.312535423847214 2.312535423847214 2.312535423847214 2.312535423847214 2.312535423847214
          2.312535423847214 2.312535423847214 2.312535423847214 2.312535423847214 2.312535423847214 2.312535423847214
          2.312535423847214 2.312535423847214 2.312535423847214 2.312535423847214 2.312535423847214 2.312535423847214
          2.312535423847214 2.312535423847214 2.312535423847214 2.312535423847214 2.312535423847214 2.312535423847214
          2.312535423847214 2.312535423847214 2.312535423847214 2.312535423847214 2.312535423847214 2.312535423847214
          2.312535423847214 2.312535423847214 2.312535423847214 2.312535423847214 2.312535423847214 2.312535423847214
          2.312535423847214 2.312535423847214 2.312535423847214 2.312535423847214 2.312535423847214 2.312535423847214
          2.312535423847214 2.312535423847214 2.312535423847214 2.312535423847214 2.312535423847214 2.312535423847214
          2.312535423847214 2.312535423847214 2.312535423847214 2.312535423847214 2.312535423847214 2.312535423847214
          2.312535423847214 2.312535423847214 2.312535423847214 2.312535423847214 2.312535423847214 2.312535423847214
          2.312535423847214 2.312535423847214 2.312535423847214 2.312535423847214 2.312535423847214 2.312535423847214
          2.312535423847214 2.312535423847214 2.312535423847214 2.312535423847214 2.312535423847214 2.312535423847214
          2.312535423847214 2.312535423847214 2.312535423847214 2.312535423847214 2.312535423847214 2.312535423847214
          2.312535423847214 2.312535423847214 2.312535423847214 2.312535423847214 2.312535423847214 2.312535423847214
          2.312535423847214 2.312535423847214 2.312535423847214 2.312535423847214 2.312535423847214 2.312535423847214
          2.312535423847214 2.312535423847214 2.312535423847214 2.312535423847214 2.312535423847214 2.312535423847214
          2.312535423847214 2.312535423847214 2.312535423847214 2.312535423847214 2.312535423847214 2.312535423847214
          2.312535423847214 2.312535423847214 2.312535423847214 2.312535423847214 2.312535423847214 2.312535423847214
          2.312535423847214 2.312535423847214 2.312535423847214 2.312535423847214 2.312535423847214 2.312535423847214
          2.312535423847214 2.312535423847214 2.312535423847214 2.312535423847214 2.312535423847214 2.312535423847214
          2.312535423847214 2.312535423847214 2.312535423847214 2.312535423847214 2.312535423847214 2.312535423847214
          2.312535423847214 2.312535423847214 2.312535423847214 2.312535423847214 2.312535423847214 2.312535423847214
          2.312535423847214 2.312535423847214 2.312535423847214 2.312535423847214 2.312535423847214 2.312535423847214
          2.312535423847214 2.312535423847214 2.312535423847214 2.312535423847214 2.312535423847214 2.312535423847214
          2.312535423847214 2.312535423847214 2.312535423847214 2.312535423847214 2.312535423847214 2.312535423847214
          2.312535423847214 2.312535423847214 2.312535423847214 2.312535423847214 2.312535423847214 2.312535423847214
          2.312535423847214 2.312535423847214 2.312535423847214 2.312535423847214 2.312535423847214 2.312535423847214
          2.312535423847214 2.312535423847214 2.312535423847214 2.312535423847214 2.312535423847214 2.312535423847214
          2.312535423847214 2.312535423847214 2.312535423847214 2.312535423847214 2.312535423847214 2.312535423847214
          2.312535423847214 2.312535423847214 2.312535423847214 2.312535423847214 2.312535423847214 2.312535423847214
          2.312535423847214 2.312535423847214 2.312535423847214 2.312535423847214 2.312535423847214 2.312535423847214
          2.312535423847214 2.312535423847214 2.312535423847214 2.312535423847214 2.312535423847214 2.312535423847214
          2.312535423847214 2.312535423847214 2.312535423847214 2.312535423847214 2.312535423847214 2.312535423847214
          2.312535423847214 2.312535423847214 2.312535423847214 2.312535423847214 2.312535423847214 2.312535423847214
          2.312535423847214 2.312535423847214 2.312535423847214 2.312535423847214 2.312535423847214 2.312535423847214
          2.312535423847214 2.296594601240156 2.312535423847214 2.312535423847214 2.312535423847214 2.312535423847214
          2.312535423847214 2.312535423847214 2.312535423847214 2.312535423847214 2.312535423847214 2.312535423847214
          2.312535423847214 2.312535423847214 2.312535423847214 2.312535423847214 2.312535423847214 2.312535423847214
          2.312535423847214 2.312535423847214 2.312535423847214 2.312535423847214 2.312535423847214 2.312535423847214
          2.312535423847214 2.26232279139661 2.1358179454832866 2.0087352376466434 1.916556538446247 1.8354168185021391
          1.7703881880278176 1.7080218823643691 1.6104077741499803 2.312535423847214 2.312535423847214 2.312535423847214
          2.312535423847214 2.312535423847214 2.312535423847214 2.312535423847214 2.312535423847214 2.312535423847214
          2.312535423847214 2.312535423847214 2.312535423847214 2.312535423847214 2.312535423847214 2.312535423847214
          2.2674926838136344 2.112048289960671 1.9688584759498555 1.8417724290387711 1.7166153341047667 1.5977583622128337
          1.5129112622709724 1.4433703730019298 1.3686307323133249 1.3052883170896084 1.2521210068057795 1.2230191092606186
          1.1963703589517611 1.182799474516933 1.168888308769531 1.144814112944673 2.312535423847214 2.312535423847214
          2.312535423847214 2.312535423847214 2.312535423847214 2.312535423847214 2.312535423847214 2.312535423847214
          2.312535423847214 2.312535423847214 2.312535423847214 2.312535423847214 2.138705488010411 1.9167869751249922
          1.697820540309354 1.4974895373661243 1.321374148291519 1.1779941472306257 1.0680341182135633 0.9919141356646674
          0.952156556745273 0.9421613041703573 0.938223319466017 0.9337773536787161 0.9287880914356846 0.9268072859811083
          0.9326941278822871 0.9419571319518947 0.95333928779644 0.9655254056504279 0.9793807931536138 2.312535423847214
          2.312535423847214 2.312535423847214 2.312535423847214 2.312535423847214 2.312535423847214 2.312535423847214
          2.195850627035569 2.091329119918012 2.015369030107001 1.887308913822618 1.6963465599956318 1.4891980275183079
          1.284609397422095 1.102884802191761 0.9653153580687971 0.8829860938427261 0.8497710861931933 0.8444757366780338
          0.8502776261868646 0.8586632737419084 0.8656446643529203 0.8709388323360711 0.8752593136598298 0.8791197802930646
          0.8841048155453703 0.8910473326799562 0.9006275498499559 0.9132841124861092 0.929244571381817 0.9489768204626645
          2.312535423847214 2.312535423847214 2.312535423847214 2.312535423847214 2.312535423847214 2.312535423847214
          2.0457127314758674 1.6439385461396014 1.5243180059837436 1.4357994812432018 1.3164839959914578 1.162500706919671
          1.0167047824397917 0.9068541511775153 0.8469752619712109 0.8334467583157352 0.8444301446847055 0.8595719110352742
          0.871415915240057 0.8799696065774961 0.8844666027598544 0.8858296357585755 0.8866126048653783 0.8873687984164349
          0.8886789782319625 0.8910683977225186 0.8952671408924103 0.9022626551328208 0.9124268953317197 0.9261794171323855
          0.9439295856701375 2.312535423847214 2.312535423847214 2.312535423847214 2.312535423847214 2.312535423847214
          2.312535423847214 1.6500261666509377 1.2393198808868364 1.1104971864528277 1.0250959635478862 0.9461512065698648
          0.8771111126763103 0.838383422299313 0.8348006363102792 0.8517338389857931 0.8713517977370415 0.8856901579196457
          0.8937846576761284 0.8973052829136858 0.898124841620608 0.897186779088224 0.8956259888246787 0.8942494872816966
          0.8931725655785908 0.8928775108175567 0.8939919109308264 0.8971173551300916 0.9029574303309502 0.9121401628516503
          0.9252172213869161 0.9426243969842152 2.312535423847214 2.312535423847214 2.312535423847214 2.312535423847214
          2.312535423847214 2.312535423847214 1.4468029094132326 1.031386616807211 0.9112678816503238 0.8531456608206328
          0.8326757460291148 0.836358880190164 0.8537379882629348 0.8744211327686119 0.8895777835909991 0.8980271473141814
          0.9015270544155113 0.9017473118103276 0.9002836667787756 0.8983533877839438 0.8962595091435582 0.8943350899265281
          0.8925583370059391 0.8912679357394317 0.8910170787205651 0.8922802148583966 0.8956907637393623 0.9018590588504135
          0.9114552562243754 0.9249537852219767 0.9428061490563763 2.312535423847214 2.312535423847214 2.312535423847214
          2.312535423847214 2.312535423847214 2.312535423847214 1.645859529910353 1.0271601999524356 0.8709572943430091
          0.8375295365445838 0.8515971075628753 0.8724410366566511 0.8877498749917451 0.8964504429312845 0.899997358635089
          0.9002682801158081 0.8989003664303461 0.8968833133257366 0.8945875106342612 0.8924348060099655 0.8906164025111386
          0.8891892154501668 0.8881692471900116 0.8877260085962303 0.8883441824052968 0.8904359619368422 0.8945948350649634
          0.9014047810147406 0.9116047798482391 0.9257260064085755 0.9440712474645178 2.312535423847214 2.312535423847214
          2.312535423847214 2.312535423847214 2.312535423847214 2.312535423847214 2.312535423847214 1.5347257208174232
          1.0209040563753242 0.8727832956326321 0.8789240349198968 0.8916915538033781 0.8960265956119109 0.8964847525276796
          0.8950969763297311 0.8930621107428474 0.8910858430388475 0.8893329038478688 0.8876895238203649 0.8862824424696373
          0.8852515083852805 0.8846448722735091 0.8844938113157519 0.8849296520057266 0.8863459523941902 0.8892512627373107
          0.8942180869364066 0.9018011263067746 0.9127721794850324 0.9276571525546116 0.9467068964891733 2.312535423847214
          2.312535423847214 2.312535423847214 2.312535423847214 2.312535423847214 2.312535423847214 2.312535423847214
          2.312535423847214 1.792360612967836 1.0760906104350714 0.8884171077379672 0.8921136368677496 0.8912194076203306
          0.8892886565605257 0.8874470249530075 0.8858944619248861 0.8845974486382943 0.8835172237170703 0.8825383973912403
          0.8817980274453018 0.8814299828174008 0.8814810362268861 0.8820460832488807 0.8832300584401227 0.885386796512028
          0.8891552304991567 0.8950390015554566 0.9035355610525014 0.9154773700266231 0.931203343824952 0.9511183558636931
          2.312535423847214 2.312535423847214 2.312535423847214 2.312535423847214 2.312535423847214 2.312535423847214
          2.312535423847214 2.312535423847214 2.312535423847214 2.140899014319266 0.9460498903869997 0.8862062948021455
          0.8846706338461511 0.8832021008422879 0.88195638281353 0.8810078309617178 0.8803008963249758 0.8797617707554074
          0.8793364985702092 0.8791505002221836 0.8793306258554615 0.8799324394209821 0.8811305404275032 0.8829603808102888
          0.8859088792107402 0.8905300747887327 0.8973002772643236 0.9067966052707234 0.9197544684855362 0.9364385005335263
          0.9578105622448565 2.312535423847214 2.312535423847214 2.312535423847214 2.312535423847214 2.312535423847214
          2.312535423847214 2.312535423847214 2.312535423847214 2.312535423847214 2.312535423847214 1.62657789359145
          0.8814219154105989 0.8804088839240098 0.8795465997172718 0.8788845207834495 0.8784572897799002 0.8782377853220239
          0.8781432767652536 0.8781692225414454 0.8784597248486351 0.8790843974326392 0.8801680002462855 0.8818658633499307
          0.8843185452562711 0.8880935830256651 0.8935459752791174 0.9011457740183472 0.9116362170660428 0.9255809193253683
          0.943686589882768 0.9670754628985053 2.312535423847214 2.312535423847214 2.312535423847214 2.312535423847214
          2.312535423847214 2.312535423847214 2.312535423847214 2.312535423847214 2.312535423847214 2.312535423847214
          2.312535423847214 0.9002203415670303 0.8786140172912822 0.8783165862690264 0.8781849530174692 0.8782106201605178
          0.878371795394857 0.8786392373900949 0.8790323952470177 0.8797074428218303 0.8807028646845058 0.882192759826197
          0.8843175667420194 0.8873964093587381 0.8919386542745926 0.8981842883342311 0.906612268174007 0.9180082016433389
          0.9332038879363574 0.9533582033427898 0.9790877156621953 2.312535423847214 2.312535423847214 2.312535423847214
          2.312535423847214 2.312535423847214 2.312535423847214 2.312535423847214 2.312535423847214 2.312535423847214
          2.312535423847214 2.312535423847214 1.4770735549722789 0.879161460368105 0.8793651774932939 0.8797052114806496
          0.8801110556047838 0.8805865750257204 0.8811327399838711 0.8818166409987498 0.8827797766815292 0.8840666707816024
          0.8858908854519739 0.8884707391063016 0.8921676954554245 0.8973956261609125 0.9043628782748595 0.9136247127870502
          0.9260639508186874 0.9429899862342784 0.9655573197497946 0.9951583489051227 2.312535423847214 2.312535423847214
          2.312535423847214 2.312535423847214 2.312535423847214 2.312535423847214 2.312535423847214 2.312535423847214
          2.312535423847214 2.312535423847214 2.312535423847214 2.312535423847214 0.8818745841683426 0.8825182941037047
          0.8832679889423556 0.8839910012878234 0.8847030177972375 0.8854591097664112 0.8863638118733745 0.887547279849952
          0.8891008021578969 0.8912382587463059 0.8942538182918076 0.8985743262869036 0.9044219622712873 0.912077010343675
          0.9224182843091524 0.9363643122699473 0.9555857321768537 0.982244250842476 1.0187196206324831 2.312535423847214
          2.312535423847214 2.312535423847214 2.312535423847214 2.312535423847214 2.312535423847214 2.312535423847214
          2.312535423847214 2.312535423847214 2.312535423847214 2.312535423847214 2.312535423847214 0.8941693726131225
          0.8875823882499413 0.8886737662372693 0.8896393319450675 0.8905642364660098 0.8914659426105995 0.8925576993393672
          0.8939586480360254 0.8957752181068082 0.8982627455692542 0.9017430928677035 0.906522671826257 0.9130265947574179
          0.921653325266585 0.9335473690504438 0.9498424086860096 0.9730702435259166 1.0071928305548337 1.0593057565655606
          2.312535423847214 2.312535423847214 2.312535423847214 2.312535423847214 2.312535423847214 2.312535423847214
          2.312535423847214 2.312535423847214 2.312535423847214 2.312535423847214 2.312535423847214 2.312535423847214
          2.2783291412256395 0.894405137763971 0.8957587551284985 0.8969411971461356 0.8980437942769931 0.8990895191167123
          0.9003526573199989 0.901989432107245 0.9040964031117096 0.9069701785666885 0.9109637028151502 0.9162018196879413
          0.9233871153454684 0.9336301798016331 0.9480223378767156 0.9685357556042994 1.0000792615863774 1.0565000084482405
          1.1570733183989474 2.312535423847214 2.312535423847214 2.312535423847214 2.312535423847214 2.312535423847214
          2.312535423847214 2.312535423847214 2.312535423847214 2.312535423847214 2.312535423847214 2.312535423847214
          2.312535423847214 2.312535423847214 0.9029080941944273 0.9044399869720617 0.9058161759879898 0.907092576960074
          0.9082910381050514 0.9097250216611193 0.9115904759679598 0.9140597312480315 0.917396209628172 0.9218636359662754
          0.9277951025777534 0.9364624237540359 0.9492914389004902 0.9680957488631311 0.9987294810247899 1.0605239293282418
          1.1894817981856571 1.4499144933479498 2.312535423847214 2.312535423847214 2.312535423847214 2.312535423847214
          2.312535423847214 2.312535423847214 2.312535423847214 2.312535423847214 2.312535423847214 2.312535423847214
          2.312535423847214 2.312535423847214 2.312535423847214 0.9129585274595019 0.9146084992324728 0.9162096432288938
          0.9176758610069178 0.9191159187912055 0.9207526655498167 0.9229071546744583 0.9257302281574928 0.9295050548323692
          0.9345627846023349 0.9418455209162304 0.9534630917111219 0.9716719463977972 1.0052403467719093 1.078993551247208
          1.2556786543706557 1.7467126014537697 2.312535423847214 2.312535423847214 2.312535423847214 2.312535423847214
          2.312535423847214 2.312535423847214 2.312535423847214 2.312535423847214 2.312535423847214 2.312535423847214
          2.312535423847214 2.312535423847214 2.312535423847214 2.312535423847214 0.9398613838126181 0.9314350303408696
          0.9290064690920505 0.9298405758817696 0.9314169674884566 0.9332960168589532 0.9357842531565023 0.9389463030206048
          0.9432330498846353 0.949736762213205 0.9600610345021177 0.9796501640802882 1.0265343144458436 1.139268515787599
          1.501283087664152 2.312535423847214 2.312535423847214 2.312535423847214 2.312535423847214 2.312535423847214
          2.312535423847214 2.312535423847214 2.312535423847214 2.312535423847214 2.312535423847214 2.312535423847214
          2.312535423847214 2.312535423847214 2.312535423847214 2.312535423847214 2.312535423847214 2.312535423847214
          1.1060166012873198 1.0273147424307425 0.9787403284664746 0.9568781285171518 0.9501617203183 0.9507539418049121
          0.9541613249000654 0.9595571386291402 0.9696471303246992 0.9931818436322755 1.0849252756445447 1.4975431612229224
          2.312535423847214 2.312535423847214 2.312535423847214 2.312535423847214 2.312535423847214 2.312535423847214
          2.312535423847214 2.312535423847214 2.312535423847214 2.312535423847214 2.312535423847214 2.312535423847214
          2.312535423847214 2.312535423847214 2.312535423847214 2.312535423847214 2.312535423847214 2.312535423847214
          2.312535423847214 1.9707437652450828 1.655941409752413 1.3797201239035939 1.1766790994552871 1.0545339415758723
          1.001877719646089 0.9828374560828889 0.9842115473062394 1.0163131720072258 1.359026345189272 2.312535423847214
          2.312535423847214 2.312535423847214 2.312535423847214 2.312535423847214 2.312535423847214 2.312535423847214
          2.312535423847214 2.312535423847214 2.312535423847214 2.312535423847214 2.312535423847214 2.312535423847214
          2.312535423847214 2.312535423847214 2.312535423847214 2.312535423847214 2.312535423847214 2.312535423847214
          2.312535423847214 2.312535423847214 2.312535423847214 2.312535423847214 2.312535423847214 2.104519220425423
          1.6694945584004095 1.368279203986407 1.1949745596178145 1.1647155911992877 2.298209214427909 2.312535423847214
          2.312535423847214 2.312535423847214 2.312535423847214 2.312535423847214 2.312535423847214 2.312535423847214
          2.312535423847214 
        </DataArray>
      </PointData>
      <CellData>
        <DataArray type="Float32" Name="averaged zvalue" NumberOfComponents="1" format="ascii" RangeMin="0.8437370127393017" RangeMax="2.312535423847214">
          2.312535423847214 2.312535423847214 2.312535423847214 2.312535423847214 2.312535423847214 2.312535423847214
          2.312535423847214 2.312535423847214 2.312535423847214 2.312535423847214 2.312535423847214 2.312535423847214
          2.312535423847214 2.312535423847214 2.312535423847214 2.312535423847214 2.312535423847214 2.312535423847214
          2.312535423847214 2.312535423847214 2.312535423847214 2.312535423847214 2.312535423847214 2.312535423847214
          2.312535423847214 2.312535423847214 2.312535423847214 2.312535423847214 2.312535423847214 2.312535423847214
          2.312535423847214 2.312535423847214 2.312535423847214 2.312535423847214 2.312535423847214 2.312535423847214
          2.312535423847214 2.312535423847214 2.312535423847214 2.312535423847214 2.312535423847214 2.312535423847214
          2.312535423847214 2.312535423847214 2.312535423847214 2.312535423847214 2.312535423847214 2.312535423847214
          2.312535423847214 2.312535423847214 2.312535423847214 2.312535423847214 2.312535423847214 2.312535423847214
          2.312535423847214 2.312535423847214 2.312535423847214 2.312535423847214 2.312535423847214 2.312535423847214
          2.312535423847214 2.312535423847214 2.312535423847214 2.312535423847214 2.312535423847214 2.312535423847214
          2.312535423847214 2.312535423847214 2.312535423847214 2.312535423847214 2.312535423847214 2.312535423847214
          2.312535423847214 2.312535423847214 2.312535423847214 2.312535423847214 2.312535423847214 2.312535423847214
          2.312535423847214 2.312535423847214 2.312535423847214 2.312535423847214 2.312535423847214 2.312535423847214
          2.312535423847214 2.312535423847214 2.312535423847214 2.312535423847214 2.312535423847214 2.312535423847214
          2.312535423847214 2.312535423847214 2.312535423847214 2.312535423847214 2.312535423847214 2.312535423847214
          2.312535423847214 2.312535423847214 2.312535423847214 2.312535423847214 2.312535423847214 2.312535423847214
          2.312535423847214 2.312535423847214 2.312535423847214 2.312535423847214 2.312535423847214 2.312535423847214
          2.312535423847214 2.312535423847214 2.312535423847214 2.312535423847214 2.312535423847214 2.312535423847214
          2.312535423847214 2.312535423847214 2.312535423847214 2.312535423847214 2.312535423847214 2.312535423847214
          2.312535423847214 2.312535423847214 2.312535423847214 2.312535423847214 2.312535423847214 2.312535423847214
          2.312535423847214 2.312535423847214 2.312535423847214 2.312535423847214 2.312535423847214 2.312535423847214
          2.312535423847214 2.312535423847214 2.312535423847214 2.312535423847214 2.312535423847214 2.312535423847214
          2.312535423847214 2.312535423847214 2.312535423847214 2.312535423847214 2.312535423847214 2.312535423847214
          2.312535423847214 2.312535423847214 2.312535423847214 2.312535423847214 2.312535423847214 2.312535423847214
          2.312535423847214 2.312535423847214 2.312535423847214 2.312535423847214 2.312535423847214 2.312535423847214
          2.312535423847214 2.312535423847214 2.312535423847214 2.312535423847214 2.312535423847214 2.312535423847214
          2.312535423847214 2.312535423847214 2.312535423847214 2.312535423847214 2.312535423847214 2.312535423847214
          2.312535423847214 2.312535423847214 2.312535423847214 2.312535423847214 2.312535423847214 2.312535423847214
          2.312535423847214 2.312535423847214 2.312535423847214 2.312535423847214 2.312535423847214 2.312535423847214
          2.312535423847214 2.312535423847214 2.312535423847214 2.312535423847214 2.312535423847214 2.312535423847214
          2.312535423847214 2.312535423847214 2.312535423847214 2.312535423847214 2.312535423847214 2.312535423847214
          2.312535423847214 2.312535423847214 2.312535423847214 2.312535423847214 2.312535423847214 2.312535423847214
          2.312535423847214 2.312535423847214 2.312535423847214 2.312535423847214 2.312535423847214 2.312535423847214
          2.312535423847214 2.312535423847214 2.312535423847214 2.312535423847214 2.312535423847214 2.3085502181954496
          2.312535423847214 2.312535423847214 2.312535423847214 2.312535423847214 2.312535423847214 2.312535423847214
          2.312535423847214 2.312535423847214 2.312535423847214 2.312535423847214 2.312535423847214 2.312535423847214
          2.312535423847214 2.312535423847214 2.312535423847214 2.312535423847214 2.312535423847214 2.312535423847214
          2.312535423847214 2.312535423847214 2.312535423847214 2.312535423847214 2.2999822657345628 2.2558028961435808
          2.192406007706089 2.1375906559468296 2.0942610511607036 2.057718963556096 2.0258702295216535 1.9818899204004299
          2.312535423847214 2.312535423847214 2.312535423847214 2.312535423847214 2.312535423847214 2.312535423847214
          2.312535423847214 2.312535423847214 2.312535423847214 2.312535423847214 2.312535423847214 2.312535423847214
          2.312535423847214 2.312535423847214 2.301274738838819 2.251152955367183 2.1764944034012386 2.1089254381707634
          2.0458646527094912 1.984861136003007 1.9339351180445585 1.8953381207418323 1.8467148301397696 1.7680149465707076
          1.6754906267563294 1.600107973039822 1.5428407062901912 1.4962437099996628 1.4575244634196627 1.4080330195571382
          2.312535423847214 2.312535423847214 2.312535423847214 2.312535423847214 2.312535423847214 2.312535423847214
          2.312535423847214 2.312535423847214 2.312535423847214 2.312535423847214 2.312535423847214 2.269077939888013
          2.1701408277074576 2.0599195907821937 1.9438345463340814 1.7996011648579875 1.645068765358168 1.514164792608204
          1.4045840042554423 1.3146110971818854 1.251246871349859 1.2091665647273193 1.1710004446149969 1.1341211236293334
          1.1032511753280452 1.0836603824824484 1.0735101820116404 1.0686165633042572 1.067638119183333 1.0646521551295614
          2.312535423847214 2.312535423847214 2.312535423847214 2.312535423847214 2.312535423847214 2.312535423847214
          2.2833642246443024 2.228062648662002 2.18294224942986 2.1319371979060118 2.0521815803781696 1.909196374842891
          1.7073249720189514 1.5005254287620504 1.315877559484009 1.1667912843922916 1.058031368889516 0.9850687720788541
          0.9386754041857823 0.9132528980846784 0.9046564497526147 0.9042420300813414 0.9045497047851585 0.9042361347668237
          0.9047049933138069 0.9086633905221804 0.9165815355910234 0.9273020205211 0.9403483443286985 0.9557818976621308
          2.312535423847214 2.312535423847214 2.312535423847214 2.312535423847214 2.312535423847214 2.2458297507543774
          2.049509332124563 1.8638590747692314 1.7667039093129895 1.6637403552910697 1.5156600441823447 1.3411875192183507
          1.1743415896394274 1.0353309031906455 0.937155545136876 0.881544588727991 0.8591898089389748 0.8563086622866396
          0.8615347211706129 0.8683442773165309 0.8736510441533147 0.8772564343282362 0.8800448873194284 0.882606717650323
          0.885742992948229 0.8903719217100639 0.8973011696387858 0.9071503032001514 0.9202837490830078 0.9370825986617511
          2.312535423847214 2.312535423847214 2.312535423847214 2.312535423847214 2.312535423847214 2.0802024364553082
          1.6447493312883108 1.3795184048657523 1.2739276593069149 1.1808826618381028 1.075561755539326 0.9736750060837716
          0.8991857480567248 0.8600909721111997 0.8508769142524452 0.8587297146642819 0.8708692178289384 0.8805194417162863
          0.8867039115879618 0.8899369575115457 0.8907772516078332 0.8905794291825823 0.8903508640355252 0.8905244632611362
          0.8916541994257161 0.8943612011689618 0.8994011453715682 0.9074467859117853 0.918990924175668 0.9344876552934135
          2.312535423847214 2.312535423847214 2.312535423847214 2.312535423847214 2.312535423847214 1.9304749809396495
          1.3418838934395545 1.0731178914492998 0.9750016731179177 0.9142671442418746 0.8730742363663635 0.8513978508571806
          0.8503357949102848 0.8626333479139209 0.8776726419070038 0.889149039346595 0.8956872954554033 0.8982802297947293
          0.8985167947742533 0.8974811294090834 0.8958518417457473 0.8941922257597106 0.8928120814014147 0.892083772714036
          0.8925416788318361 0.8947700611646692 0.8994061520127044 0.9071029770643473 0.9184416064212296 0.9339003881623711
          2.312535423847214 2.312535423847214 2.312535423847214 2.312535423847214 2.312535423847214 1.9294333217545032
          1.287802314020808 0.9601929981882449 0.8682250933396374 0.8437370127393017 0.8482681926097013 0.8625719450253737
          0.8780898597386442 0.8901116794814962 0.8969676424140194 0.8996807120689616 0.8997645114954804 0.8983754506372753
          0.8964148428017366 0.8944160263621516 0.892600054257848 0.8910629723931615 0.8899303821329032 0.889588801365381
          0.8905193594802752 0.8932504438998912 0.89838735966737 0.9065809689844422 0.9184349569257917 0.9343892970378616
          2.312535423847214 2.312535423847214 2.312535423847214 2.312535423847214 2.312535423847214 2.1458664503629983
          1.6300702186318565 1.113436817872048 0.9005435457238873 0.8602084936649971 0.8736634332357003 0.8869772652659212
          0.8941779165156549 0.897007382605946 0.8971061814558688 0.8958291500819623 0.8940506066606997 0.8921233129070578
          0.8902485707335572 0.8886462898440055 0.8874254996550237 0.8866242865573598 0.88632967977693 0.886836448850361
          0.88859433986841 0.8921250366688807 0.8980047073307214 0.9068957166636967 0.9194400295741146 0.9360403257292196
          2.312535423847214 2.312535423847214 2.312535423847214 2.312535423847214 2.312535423847214 2.312535423847214
          2.118082998089766 1.6651314535019492 1.190534643852716 0.9290537621813919 0.887786583332248 0.8927627984758424
          0.8932548530801117 0.892079352592736 0.8903751434876179 0.8886599660862188 0.8871333548105202 0.885769512194136
          0.8845770977816361 0.8836904902794052 0.8832018499257692 0.8831664507662569 0.8836749012526205 0.8849731148380169