<VTKFile type="PolyData" version="1.0" byte_order="LittleEndian" header_type="UInt64">
  <PolyData>
    <Piece NumberOfPoints="961" NumberOfVerts="0" NumberOfLines="0" NumberOfStrips="0" NumberOfPolys="900">
      <PointData>
        <DataArray type="Float32" Name="zvalue" NumberOfComponents="1" format="ascii" RangeMin="0.7946132462709142" RangeMax="2.312535423847214">
          2.312535423847214 2.312535423847214 2.312535423847214 2.312535423847214 2.312535423847214 2.312535423847214
          2.312535423847214 2.312535423847214 2.312535423847214 2.312535423847214 2.312535423847214 2.312535423847214
          2.312535423847214 2.312535423847214 2.312535423847214 2.312535423847214 2.312535423847214 2.312535423847214
          2.312535423847214 2.312535423847214 2.312535423847214 2.312535423847214 2.312535423847214 2.312535423847214
          2.312535423847214 2.312535423847214 2.312535423847214 2.312535423847214 2.312535423847214 2.312535423847214
          2.312535423847214 2.312535423847214 2.312535423847214 2.312535423847214 2.312535423847214 2.312535423847214
          2.312535423847214 2.312535423847214 2.312535423847214 2.312535423847214 2.312535423847214 2.312535423847214
          2.312535423847214 2.312535423847214 2.312535423847214 2.312535423847214 2.312535423847214 2.312535423847214
          2.312535423847214 2.312535423847214 2.312535423847214 2.312535423847214 2.312535423847214 2.312535423847214
          2.312535423847214 2.312535423847214 2.312535423847214 2.312535423847214 2.312535423847214 2.312535423847214
          2.312535423847214 2.312535423847214 2.312535423847214 2.312535423847214 2.312535423847214 2.312535423847214
          2.312535423847214 2.312535423847214 2.312535423847214 2.312535423847214 2.312535423847214 2.312535423847214
          2.312535423847214 2.312535423847214 2.312535423847214 2.312535423847214 2.312535423847214 2.312535423847214
          2.312535423847214 2.312535423847214 2.312535423847214 2.312535423847214 2.312535423847214 2.312535423847214
          2.312535423847214 2.312535423847214 2.312535423847214 2.312535423847214 2.312535423847214 2.312535423847214
          2.312535423847214 2.312535423847214 2.312535423847214 2.312535423847214 2.312535423847214 2.312535423847214
          2.312535423847214 2.312535423847214 2.312535423847214 2.312535423847214 2.312535423847214 2.312535423847214
          2.312535423847214 2.312535423847214 2.312535423847214 2.312535423847214 2.312535423847214 2.312535423847214
          2.312535423847214 2.312535423847214 2.312535423847214 2.312535423847214 2.312535423847214 2.312535423847214
          2.312535423847214 2.312535423847214 2.312535423847214 2.312535423847214 2.312535423847214 2.312535423847214
          2.312535423847214 2.312535423847214 2.312535423847214 2.312535423847214 2.312535423847214 2.312535423847214
          2.312535423847214 2.312535423847214 2.312535423847214 2.312535423847214 2.312535423847214 2.312535423847214
          2.312535423847214 2.312535423847214 2.312535423847214 2.312535423847214 2.312535423847214 2.312535423847214
          2.312535423847214 2.312535423847214 2.312535423847214 2.312535423847214 2.312535423847214 2.243455958975986
          2.1752170552501955 2.14898927758789 2.187548506181145 2.2322637670882806 2.2661714133985034 2.234705563957261
          2.2225332476165085 2.2757417166233593 2.312535423847214 2.312535423847214 2.312535423847214 2.312535423847214
          2.312535423847214 2.312535423847214 2.312535423847214 2.312535423847214 2.312535423847214 2.312535423847214
          2.312535423847214 2.312535423847214 2.312535423847214 2.312535423847214 2.312535423847214 2.312535423847214
          2.312535423847214 2.312535423847214 2.312535423847214 2.1133881578638807 1.7336428670428843 1.7459916918515856
          1.8840168442752778 1.9381907804106073 1.95442297734829 1.9461333046526463 1.9669851480417628 2.0001111328881347
          2.050918979474768 2.113873403136805 2.1944866803232133 2.260761043843971 2.312535423847214 2.312535423847214
          2.312535423847214 2.312535423847214 2.312535423847214 2.312535423847214 2.312535423847214 2.312535423847214
          2.312535423847214 2.312535423847214 2.312535423847214 2.312535423847214 2.312535423847214 2.312535423847214
          2.312535423847214 2.2663905520356553 1.9699548544833478 1.566525579248909 1.3887769820496694 1.7210384560797432
          1.8953542115467086 1.9384279866150875 1.9669709632524823 1.96501775851313 1.938323609603412 1.9287459104652518
          1.932593995880568 1.9636697097072275 2.0249788549659384 2.095728507889137 2.1638261739120566 2.233367675424486
          2.312535423847214 2.312535423847214 2.312535423847214 2.312535423847214 2.312535423847214 2.312535423847214
          2.312535423847214 2.312535423847214 2.312535423847214 2.312535423847214 2.312535423847214 2.2497953557508654
          1.78882541445732 1.5467069839111238 1.3859059854837168 1.1377198914847213 1.1866693538515427 1.458784324503717
          1.6586676541346301 1.7411576244055937 1.7858417847941632 1.8144911158390336 1.8158887977174238 1.8175731530668473
          1.8136520610473308 1.8219998681193845 1.8557876197130783 1.921557218190051 1.9916947974251664 2.0560463601053582
          2.1328542947222586 2.2555302440711458 2.312535423847214 2.312535423847214 2.312535423847214 2.312535423847214
          2.312535423847214 2.312535423847214 2.312535423847214 2.312535423847214 2.312535423847214 2.236691156299852
          1.6037899137708858 1.1634123806173908 0.9941183378269018 0.9552318169423681 1.0174830673547963 1.1812547065345111
          1.3525575962469567 1.4704058108762081 1.5385172889897933 1.5940247386211281 1.6254973968369801 1.640828466016051
          1.6603251690314211 1.6688386130288164 1.6907703947270463 1.7387350016638894 1.802931527971907 1.8751732991445866
          1.9472361848950426 2.0396848107491823 2.187418156442729 2.312535423847214 2.312535423847214 2.312535423847214
          2.312535423847214 2.312535423847214 2.312535423847214 2.312535423847214 2.312535423847214 2.312535423847214
          1.7449348619193197 1.0841336680623697 0.9749369703319529 0.966828245056895 0.9607855235564814 1.0200443274121649
          1.1198242178807205 1.2137890415818446 1.2926908431598514 1.3501290495814606 1.4034487369518174 1.4437914752365344
          1.4717815814145396 1.5023340891917214 1.5270682885453581 1.5583425330625171 1.6171818971700378 1.6909423776634913
          1.771394520055459 1.8577247486368986 1.9789575500955658 2.158127441290896 2.312535423847214 2.312535423847214
          2.312535423847214 2.312535423847214 2.312535423847214 2.312535423847214 2.312535423847214 2.312535423847214
          2.312535423847214 1.3717443239462699 0.9358704689469868 0.9854000921001185 0.9920584197419396 0.9876996736848861
          1.0108792926760402 1.0510745124835543 1.0946084620244254 1.1459142816377519 1.1894767503478283 1.2368156227676939
          1.283052945163111 1.3217320636579981 1.3643621802822363 1.399672553039416 1.4412393903874372 1.5093794961917943
          1.5939009389078773 1.6871998160003496 1.8001870933226702 1.959812556776479 2.175781897423097 2.312535423847214
          2.312535423847214 2.312535423847214 2.312535423847214 2.312535423847214 2.312535423847214 2.312535423847214
          2.312535423847214 1.8643521824922835 1.0809343962594908 0.9302384056892798 0.9921376223805937 0.9949234920874358
          0.9903331327252941 0.9913192661707502 0.996539739348906 1.0124072117586822 1.0427123088945591 1.0761516063512535
          1.1205111837207262 1.1639628270848765 1.207373906714782 1.2560347805121002 1.301017440173128 1.3534889334184712
          1.4270827621193467 1.523486914815957 1.6381479688838119 1.7860371628482945 1.9830006757220435 2.2322083372219046
          2.312535423847214 2.312535423847214 2.312535423847214 2.312535423847214 2.312535423847214 2.312535423847214
          2.312535423847214 1.9805869116192867 1.3156251994550427 0.8915937746355211 0.9138310025231711 0.9727752373194849
          0.9772235144992071 0.9726857685886163 0.9665979667555682 0.9614991805430623 0.9635398832723437 0.9786307295926524
          1.003322297652808 1.0396279715960208 1.0857449431487014 1.1341031825626706 1.1871537176162146 1.2416484863255048
          1.3010975413815777 1.3795264150913427 1.487950131708224 1.6277371537059864 1.809653578571567 2.0381638146958156
          2.312535423847214 2.312535423847214 2.312535423847214 2.312535423847214 2.312535423847214 2.312535423847214
          2.312535423847214 2.312535423847214 1.8984387595429983 0.9644889396917466 0.8141981206124635 0.8871326962830062
          0.9436220748426866 0.9533865850338801 0.9496983180224015 0.9419352247609268 0.9337607637155854 0.9335939083314698
          0.9434872254352542 0.9635629280194188 0.9989087709988191 1.0455140129885767 1.0973330821094263 1.1550927872638814
          1.2164518376653737 1.2800457196429333 1.362684593842656 1.4836312567145462 1.648555628152168 1.8583233950852382
          2.115014165202606 2.312535423847214 2.312535423847214 2.312535423847214 2.312535423847214 2.312535423847214
          2.312535423847214 2.312535423847214 2.312535423847214 1.8411403053868596 0.8403282893418174 0.798103530500771
          0.8636711521538869 0.9171794483293859 0.9290071636339804 0.9260349933052943 0.9189181589680032 0.9131860136560984
          0.9146846514047666 0.9252324539505434 0.9461997387342636 0.9842249323675212 1.0356100728386972 1.0922372452359348
          1.1528742654795152 1.2167614856230844 1.2823752986600614 1.3690893676773974 1.5025282412843208 1.6908716832396806
          1.9264200779324288 2.2143553574188024 2.312535423847214 2.312535423847214 2.312535423847214 2.312535423847214
          2.312535423847214 2.312535423847214 2.312535423847214 2.312535423847214 1.7591696226615992 0.855281602216518
          0.7946132462709142 0.8470384484731018 0.8983665625866263 0.9085472500154539 0.9055914537705627 0.9007992914599033
          0.8988926421390769 0.9037254182586045 0.9172177421003328 0.9432076345985165 0.9889289597575494 1.049091143953729
          1.1116954161703911 1.1731470593769906 1.2344191885945774 1.301471675855243 1.3929393391813163 1.539935930103467
          1.7531329010892112 2.019730943089815 2.312535423847214 2.312535423847214 2.312535423847214 2.312535423847214
          2.312535423847214 2.312535423847214 2.312535423847214 2.312535423847214 2.304581399828185 2.049916401904236
          1.3275968067464679 0.9322154408555652 0.8417211504627745 0.8868027032282595 0.893759631424024 0.891529237906084
          0.8889842736877772 0.8899678469665254 0.8982507456720182 0.9170637396062691 0.9511613103922852 1.0091287838910008
          1.0845620805775165 1.1537985163781839 1.213629749517638 1.269848193979145 1.3373107451839945 1.4347342124212277
          1.6002156091269302 1.8468781316231295 2.1486274776178393 2.312535423847214 2.312535423847214 2.312535423847214
          2.312535423847214 2.312535423847214 2.312535423847214 2.312535423847214 2.312535423847214 2.312535423847214
          2.312535423847214 2.312535423847214 1.5943045120507202 0.9015056880526288 0.8803253531107412 0.8843317128046024
          0.883142886894946 0.8828658142479289 0.8864678784396289 0.8975353698652843 0.9232299303853779 0.9680702800457063
          1.0486644407864278 1.1458045815199864 1.2290120348129214 1.286392463230218 1.3323782143756318 1.3976786391826561
          1.5036148464434225 1.7018250853717456 1.9852720149087992 2.312535423847214 2.312535423847214 2.312535423847214
          2.312535423847214 2.312535423847214 2.312535423847214 2.312535423847214 2.312535423847214 2.312535423847214
          2.312535423847214 2.312535423847214 2.312535423847214 2.312535423847214 1.1570325419699312 0.8776934345253106
          0.8796425123666071 0.8797263172240007 0.881498686886303 0.8875423998997642 0.9012031465966732 0.9336494992940627
          0.994805628751812 1.1096443382722758 1.2388308422399164 1.3431339411739827 1.3987707136191658 1.4318432018799816
          1.492106801412125 1.615637576099022 1.8568466998701174 2.1799289175892813 2.312535423847214 2.312535423847214
          2.312535423847214 2.312535423847214 2.312535423847214 2.312535423847214 2.312535423847214 2.312535423847214
          2.312535423847214 2.312535423847214 2.312535423847214 2.312535423847214 2.312535423847214 1.5789385310542794
          0.8783351214611449 0.8785253696330168 0.8797814026808991 0.8833802811450109 0.8913465261859361 0.9075018667110755
          0.947889567570963 1.0301809861781375 1.1927411974963809 1.3662669303972188 1.4824283063655466 1.5471844712199725
          1.5747876502531084 1.6302425516585033 1.7838038893861008 2.071795711678267 2.312535423847214 2.312535423847214
          2.312535423847214 2.312535423847214 2.312535423847214 2.312535423847214 2.312535423847214 2.312535423847214
          2.312535423847214 2.312535423847214 2.312535423847214 2.312535423847214 2.312535423847214 2.312535423847214
          2.07425116662835 0.8817106069768985 0.88024432862105 0.8827161776154734 0.8881899217537802 0.8980501002961688
          0.915717906861005 0.9616392066423668 1.0681097226040532 1.2693384844986018 1.45333270201606 1.58991710490176
          1.6996000992390685 1.764289294500979 1.8224243722015545 2.012611270919377 2.312535423847214 2.312535423847214
          2.312535423847214 2.312535423847214 2.312535423847214 2.312535423847214 2.312535423847214 2.312535423847214
          2.312535423847214 2.312535423847214 2.312535423847214 2.312535423847214 2.312535423847214 2.312535423847214
          2.312535423847214 2.312535423847214 0.8860236991801286 0.8856288660357298 0.8907613963925485 0.8984263408712925
          0.9074363894457002 0.9255600158790148 0.9779914696676514 1.1064326668571691 1.3074724684266157 1.4487994199037633
          1.8248035599935237 2.0401461592044465 2.1048835996380686 2.1456939954409187 2.3113159771559877 2.312535423847214
          2.312535423847214 2.312535423847214 2.312535423847214 2.312535423847214 2.312535423847214 2.312535423847214
          2.312535423847214 2.312535423847214 2.312535423847214 2.312535423847214 2.312535423847214 2.312535423847214
          2.312535423847214 2.312535423847214 2.312535423847214 0.9005126437162806 0.8951502975612067 0.9080322299581325
          0.9186877287591435 0.9215991867951024 0.9418520350218823 1.0033413879665167 1.134471026621702 1.29801799772116
          1.830761382990727 2.312535423847214 2.312535423847214 2.312535423847214 2.312535423847214 2.312535423847214
          2.312535423847214 2.312535423847214 2.312535423847214 2.312535423847214 2.312535423847214 2.312535423847214
          2.312535423847214 2.312535423847214 2.312535423847214 2.312535423847214 2.312535423847214 2.312535423847214
          2.312535423847214 2.312535423847214 2.312535423847214 2.312535423847214 0.973126638863421 0.9107925779778144
          0.9361448080899996 0.949088847076291 0.9433513974005978 0.9659632405440701 1.0407421629888385 1.182517716266877
          1.30416505244721 2.312535423847214 2.312535423847214 2.312535423847214 2.312535423847214 2.312535423847214
          2.312535423847214 2.312535423847214 2.312535423847214 2.312535423847214 2.312535423847214 2.312535423847214
          2.312535423847214 2.312535423847214 2.312535423847214 2.312535423847214 2.312535423847214 2.312535423847214
          2.312535423847214 2.312535423847214 2.312535423847214 2.312535423847214 2.312535423847214 2.312535423847214
          0.9920479379613469 0.9638490506845998 0.9735168012267281 0.9710154492524569 0.9972305133937426 1.10026019757105
          1.252971192119977 1.2966550204652134 2.312535423847214 2.312535423847214 2.312535423847214 2.312535423847214
          2.312535423847214 2.312535423847214 2.312535423847214 2.312535423847214 2.312535423847214 2.312535423847214
          2.312535423847214 2.312535423847214 2.312535423847214 2.312535423847214 2.312535423847214 2.312535423847214
          2.312535423847214 2.312535423847214 2.312535423847214 2.312535423847214 2.312535423847214 2.312535423847214
          2.312535423847214 1.778590828236134 1.147365790502734 1.0763441451894291 1.0048533401179212 1.0559627143341137
          1.217151304888235 1.26667320507933 1.6709985890062833 2.312535423847214 2.312535423847214 2.312535423847214
          2.312535423847214 2.312535423847214 2.312535423847214 2.312535423847214 2.312535423847214 2.312535423847214
          2.312535423847214 2.312535423847214 2.312535423847214 2.312535423847214 2.312535423847214 2.312535423847214
          2.312535423847214 2.312535423847214 2.312535423847214 2.312535423847214 2.312535423847214 2.312535423847214
          2.312535423847214 2.312535423847214 2.312535423847214 1.4608409992948688 1.1710246147002794 1.0584652281406963
          1.1852248639327325 1.201979161235059 1.461768300999123 2.312535423847214 2.312535423847214 2.312535423847214
          2.312535423847214 2.312535423847214 2.312535423847214 2.312535423847214 2.312535423847214 2.312535423847214
          2.312535423847214 2.312535423847214 2.312535423847214 2.312535423847214 2.312535423847214 2.312535423847214
          2.312535423847214 2.312535423847214 2.312535423847214 2.312535423847214 2.312535423847214 2.312535423847214
          2.312535423847214 2.312535423847214 2.312535423847214 2.312535423847214 1.9389314802160418 1.1675786290244408
          1.126555022075428 1.169721741789336 1.993701357752353 2.312535423847214 2.312535423847214 2.312535423847214
          2.312535423847214 2.312535423847214 2.312535423847214 2.312535423847214 2.312535423847214 2.312535423847214
          2.312535423847214 2.312535423847214 2.312535423847214 2.312535423847214 2.312535423847214 2.312535423847214
          2.312535423847214 2.312535423847214 2.312535423847214 2.312535423847214 2.312535423847214 2.312535423847214
          2.312535423847214 2.312535423847214 2.312535423847214 2.312535423847214 2.312535423847214 2.312535423847214
          1.3639843438302062 1.3363065896698354 2.1903061679704696 2.312535423847214 2.312535423847214 2.312535423847214
          2.312535423847214 2.312535423847214 2.312535423847214 2.312535423847214 2.312535423847214 2.312535423847214
          2.312535423847214 2.312535423847214 2.312535423847214 2.312535423847214 2.312535423847214 2.312535423847214
          2.312535423847214 2.312535423847214 2.312535423847214 2.312535423847214 2.312535423847214 2.312535423847214
          2.312535423847214 2.312535423847214 2.312535423847214 2.312535423847214 2.312535423847214 2.312535423847214
          2.312535423847214 2.2812183762223492 2.312535423847214 2.312535423847214 2.312535423847214 2.312535423847214
          2.312535423847214 2.312535423847214 2.312535423847214 2.312535423847214 2.312535423847214 2.312535423847214
          2.312535423847214 2.312535423847214 2.312535423847214 2.312535423847214 2.312535423847214 2.312535423847214
          2.312535423847214 2.312535423847214 2.312535423847214 2.312535423847214 2.312535423847214 2.312535423847214
          2.312535423847214 2.312535423847214 2.312535423847214 2.312535423847214 2.312535423847214 2.312535423847214
          2.312535423847214 2.312535423847214 2.312535423847214 2.312535423847214 2.312535423847214 2.312535423847214
          2.312535423847214 2.312535423847214 2.312535423847214 2.312535423847214 2.312535423847214 2.312535423847214
          2.312535423847214 2.312535423847214 2.312535423847214 2.312535423847214 2.312535423847214 2.312535423847214
          2.312535423847214 
        </DataArray>
      </PointData>
      <CellData>
        <DataArray type="Float32" Name="averaged zvalue" NumberOfComponents="1" format="ascii" RangeMin="0.8220816670825052" RangeMax="2.312535423847214">
          2.312535423847214 2.312535423847214 2.312535423847214 2.312535423847214 2.312535423847214 2.312535423847214
          2.312535423847214 2.312535423847214 2.312535423847214 2.312535423847214 2.312535423847214 2.312535423847214
          2.312535423847214 2.312535423847214 2.312535423847214 2.312535423847214 2.312535423847214 2.312535423847214
          2.312535423847214 2.312535423847214 2.312535423847214 2.312535423847214 2.312535423847214 2.312535423847214
          2.312535423847214 2.312535423847214 2.312535423847214 2.312535423847214 2.312535423847214 2.312535423847214
          2.312535423847214 2.312535423847214 2.312535423847214 2.312535423847214 2.312535423847214 2.312535423847214
          2.312535423847214 2.312535423847214 2.312535423847214 2.312535423847214 2.312535423847214 2.312535423847214
          2.312535423847214 2.312535423847214 2.312535423847214 2.312535423847214 2.312535423847214 2.312535423847214
          2.312535423847214 2.312535423847214 2.312535423847214 2.312535423847214 2.312535423847214 2.312535423847214
          2.312535423847214 2.312535423847214 2.312535423847214 2.312535423847214 2.312535423847214 2.312535423847214
          2.312535423847214 2.312535423847214 2.312535423847214 2.312535423847214 2.312535423847214 2.312535423847214
          2.312535423847214 2.312535423847214 2.312535423847214 2.312535423847214 2.312535423847214 2.312535423847214
          2.312535423847214 2.312535423847214 2.312535423847214 2.312535423847214 2.312535423847214 2.312535423847214
          2.312535423847214 2.312535423847214 2.312535423847214 2.312535423847214 2.312535423847214 2.312535423847214
          2.312535423847214 2.312535423847214 2.312535423847214 2.312535423847214 2.312535423847214 2.312535423847214
          2.312535423847214 2.312535423847214 2.312535423847214 2.312535423847214 2.312535423847214 2.312535423847214
          2.312535423847214 2.312535423847214 2.312535423847214 2.312535423847214 2.312535423847214 2.312535423847214
          2.312535423847214 2.312535423847214 2.312535423847214 2.312535423847214 2.312535423847214 2.312535423847214
          2.2952655576294068 2.260935965480152 2.237319295133128 2.2404021578658657 2.261220780240963 2.2808765070453028
          2.281486956262548 2.2705774148170494 2.280836452983574 2.3033369970412503 2.312535423847214 2.312535423847214
          2.312535423847214 2.312535423847214 2.312535423847214 2.312535423847214 2.312535423847214 2.312535423847214
          2.312535423847214 2.312535423847214 2.312535423847214 2.312535423847214 2.312535423847214 2.312535423847214
          2.312535423847214 2.312535423847214 2.312535423847214 2.2627486073513805 2.1180254681502984 2.026176351647224
          2.046499979737516 2.0602201597280168 2.0542050226492456 2.059273516442493 2.0832326814909585 2.1163828653541703
          2.137976772429667 2.155507798546336 2.2016587619249712 2.2608812161594396 2.299591828846403 2.312535423847214
          2.312535423847214 2.312535423847214 2.312535423847214 2.312535423847214 2.312535423847214 2.312535423847214
          2.312535423847214 2.312535423847214 2.312535423847214 2.312535423847214 2.312535423847214 2.312535423847214
          2.3009992058943243 2.2153540635533577 2.040387820356671 1.845306535752418 1.7392116157590443 1.7740068066302304
          1.865947683572165 1.9319016436383636 1.9561506198811274 1.9509744125293695 1.9450469931907681 1.9571090468189294
          1.9868234544876746 2.038360236821185 2.1072668615787733 2.1787006014920944 2.2426225792569316 2.2927434867415317
          2.312535423847214 2.312535423847214 2.312535423847214 2.312535423847214 2.312535423847214 2.312535423847214
          2.312535423847214 2.312535423847214 2.312535423847214 2.296850406823127 2.165922904475653 1.9901508115157178
          1.8778847363194275 1.6899928208718604 1.4652174197671302 1.4001890599134594 1.55681685419194 1.7540544865416687
          1.8401954018403883 1.8764329626251917 1.8905921588305175 1.8842008297252033 1.8745736835457105 1.8742479588781338
          1.8935127983550646 1.9414983506440737 2.008489844617573 2.0768239598329297 2.1465236260410396 2.233571909516276
          2.312535423847214 2.312535423847214 2.312535423847214 2.312535423847214 2.312535423847214 2.312535423847214
          2.312535423847214 2.312535423847214 2.2935743569603733 2.1007029624172042 1.7014557661491154 1.3732657792031842
          1.2204907810410277 1.1240851903164009 1.130781754806393 1.2948164952841819 1.485103846440378 1.6021870946015564
          1.6648853592026696 1.7049637590228264 1.7241764441023721 1.733653896457936 1.740097249043604 1.7488152342306444
          1.7768232210558497 1.8297528418847315 1.8978392106829278 1.9675376603925385 2.04395541261796 2.1538718764963294
          2.312535423847214 2.312535423847214 2.312535423847214 2.312535423847214 2.312535423847214 2.312535423847214
          2.312535423847214 2.312535423847214 2.1516742164783995 1.6673874000131068 1.2065682331956498 1.0248239834582853
          0.9692409808456616 0.9883861838164527 1.0846515797955483 1.2168563905610081 1.3323608229662154 1.4129357481518283
          1.47152995353605 1.5166905869116152 1.5454747298760263 1.5688173264134333 1.589641539949329 1.6112549573409345
          1.6512574566558729 1.7124477011173314 1.785110431208861 1.8628821881829967 1.9559008235941724 2.0910469896445933
          2.312535423847214 2.312535423847214 2.312535423847214 2.312535423847214 2.312535423847214 2.312535423847214
          2.312535423847214 2.312535423847214 1.9354375083900042 1.2841708307187363 0.9950852998603569 0.9798059318077265
          0.9768429655100506 0.9948522043323931 1.0504555876131199 1.119824058492636 1.1867506571009683 1.244552731181723
          1.2949675399122 1.341777195029789 1.3800895163680458 1.4150524786366239 1.448359277764683 1.4815806912586822
          1.5315358292029466 1.6028511774833003 1.6858594131567943 1.7791265445038444 1.8991704872079032 2.0681698613965094
          2.312535423847214 2.312535423847214 2.312535423847214 2.312535423847214 2.312535423847214 2.312535423847214
          2.312535423847214 2.200489613508481 1.6573915816363145 1.079696898710507 0.9609116472792447 0.9911299065775219
          0.9912536795598889 0.9950578413142426 1.0124532026698128 1.038657481403892 1.0739105660788546 1.1135637368078481
          1.1557387907968755 1.2010856446841018 1.244030435655192 1.2873757327917792 1.3302717385017202 1.373854579254613
          1.4327976455292624 1.513462528008744 1.610683909651999 1.7278930102637815 1.8822593721673717 2.087700866785881
          2.312535423847214 2.312535423847214 2.312535423847214 2.312535423847214 2.312535423847214 2.312535423847214
          2.229548295790232 1.8682749293534566 1.2881263882105847 0.9541493947768658 0.9522455669781323 0.9842649665716804
          0.9837914769751384 0.9802340335600572 0.9789890382045716 0.9834965037307485 0.9993225333795593 1.0252042356228181
          1.059903264830202 1.1024617313875813 1.1477962148777576 1.1961663968514418 1.246463606156737 1.2993131003246705
          1.3652989130026847 1.4545115559337178 1.5693305422784949 1.7153939660024151 1.9042138079594302 2.1414770628717443
          2.312535423847214 2.312535423847214 2.312535423847214 2.312535423847214 2.312535423847214 2.312535423847214
          2.126024129714178 1.5397849525772687 0.9964765085986935 0.8766888985135405 0.9293402527420872 0.9617518529238147
          0.9632485465360262 0.9577293195318782 0.9509482839437856 0.9480984339656153 0.95481293665793 0.9722507951750333
          1.0013554920667667 1.0424489246830295 1.0906738052023437 1.143420692388048 1.2000867072177437 1.2598108962538475
          1.3308385674896273 1.4284480993391921 1.5619685425702312 1.7360674388787398 1.955288738388807 2.1945622068982122
          2.312535423847214 2.312535423847214 2.312535423847214 2.312535423847214 2.312535423847214 2.312535423847214
          2.0911624781560714 1.3860990734908554 0.8542797200366997 0.8407763748875319 0.9029013429022414 0.9357988179599833
          0.939531764998889 0.9341466737641565 0.9269500402751535 0.92380633427698 0.9292495597805084 0.9446205865348699
          0.9732240925300056 1.0160644472984035 1.0676736032931586 1.1243843450221895 1.1852950940079636 1.2489085853978632
          1.3235487449557621 1.4294833648797303 1.5813967023476787 1.7810426961023789 2.028528248909769 2.238610092578959
          2.312535423847214 2.312535423847214 2.312535423847214 2.312535423847214 2.312535423847214 2.312535423847214
          2.0563451939357216 1.3239799549016986 0.8220816670825052 0.8258565943496685 0.8815639028857503 0.9132751061413615
          0.9172952151813227 0.9128359743759409 0.9079490265557705 0.9076221813646366 0.9152150664285618 0.9329643923459141
          0.9656403163644627 1.014463777229374 1.072158469549688 1.132488496565708 1.1943004997685418 1.2587569121832416
          1.3364689203435045 1.4511232195616253 1.62161718892917 1.8475389013377839 2.1182604505720652 2.2879904072401107
          2.312535423847214 2.312535423847214 2.312535423847214 2.312535423847214 2.312535423847214 2.3105469178424567
          2.1065507120603084 1.4979911083822053 0.9774267740223663 0.8538970715155889 0.8684822161876905 0.8968690368135909
          0.8998568932790312 0.8967260642060818 0.8946610135633207 0.8977091632590563 0.9090644114093063 0.9321626066743509
          0.973106672159838 1.0329277420449487 1.099786789269955 1.1630676853608009 1.2227610478670878 1.2857624509032402
          1.3666139931604455 1.4919562727082352 1.6850406429856843 1.9420923633549987 2.1983573171005206 2.312535423847214
          2.312535423847214 2.312535423847214 2.312535423847214 2.312535423847214 2.312535423847214 2.3105469178424567
          2.244892162356712 2.000646014086283 1.5416630458749918 1.0674366978554222 0.877588723713601 0.8863048501419067
          0.8881908672574141 0.8866305531841839 0.8870714533354651 0.8930554602358641 0.9090199463822373 0.9398813151074096
          0.994256203778855 1.0720399716937328 1.153294303322152 1.2207081909847404 1.2755621552756582 1.3343039481803567