<VTKFile type="PolyData" version="1.0" byte_order="LittleEndian" header_type="UInt64">
  <PolyData>
    <Piece NumberOfPoints="961" NumberOfVerts="0" NumberOfLines="0" NumberOfStrips="0" NumberOfPolys="900">
      <PointData>
        <DataArray type="Float32" Name="zvalue" NumberOfComponents="1" format="ascii" RangeMin="-0.24568598205153086" RangeMax="2.312535423847214">
          0.9377326000879754 0.9237394632713875 0.9172094303774105 0.9279773031413088 0.9586093268275263 1.0027235368042104
          1.0424188226922009 1.0010783080691832 0.9164637170944545 1.1272040704406858 1.7638719995377334 2.312535423847214
          2.312535423847214 2.312535423847214 2.312535423847214 2.312535423847214 2.312535423847214 2.312535423847214
          2.312535423847214 2.312535423847214 2.312535423847214 2.312535423847214 2.312535423847214 2.312535423847214
          2.312535423847214 2.312535423847214 2.312535423847214 2.312535423847214 2.312535423847214 2.312535423847214
          2.312535423847214 0.9550986939767966 0.9376525144547052 0.9190416271544136 0.9031356806968671 0.896440508340312
          0.9024039505601589 0.9197027979796388 0.9436842313752237 0.9297119253654343 0.8817044793442165 1.1228394382140132
          1.8141838103127965 2.312535423847214 2.312535423847214 2.312535423847214 2.312535423847214 2.312535423847214
          2.312535423847214 2.312535423847214 2.312535423847214 2.312535423847214 2.312535423847214 2.312535423847214
          2.312535423847214 2.312535423847214 2.312535423847214 2.312535423847214 2.312535423847214 2.312535423847214
          2.312535423847214 2.312535423847214 0.9731645659218657 0.9576215667374208 0.9390525228277774 0.9179768038572405
          0.8959821609484586 0.8748667872477921 0.8564438829229092 0.8431624482198325 0.8413983710758316 0.8390401351001359
          0.8508788973805538 1.1789669371005111 1.955879862591322 2.312535423847214 2.312535423847214 2.312535423847214
          2.312535423847214 2.312535423847214 2.312535423847214 2.312535423847214 2.312535423847214 2.312535423847214
          2.312535423847214 2.312535423847214 2.312535423847214 2.312535423847214 2.312535423847214 2.312535423847214
          2.312535423847214 2.312535423847214 2.312535423847214 0.989738103930383 0.975900705521185 0.9595570537294983
          0.9402787444856116 0.9177941371740793 0.8912350338106478 0.858566980325522 0.8182113873634693 0.7735810741755401
          0.7439558394413834 0.7461236972926651 0.8591655755019083 1.3209916496460947 2.210753436375605 2.312535423847214
          2.312535423847214 2.312535423847214 2.312535423847214 2.312535423847214 2.312535423847214 2.312535423847214
          2.312535423847214 2.312535423847214 2.312535423847214 2.312535423847214 2.312535423847214 2.312535423847214
          2.312535423847214 2.312535423847214 2.312535423847214 2.312535423847214 1.0045897288000143 0.9919414507054459
          0.9769283056977051 0.9595147007686657 0.9392869057004013 0.9148127132626971 0.8826847011661859 0.8369269378465387
          0.771611461283368 0.6919656770810122 0.6426533336719169 0.6744336977044656 0.9546701218351786 1.5810659875748279
          2.312535423847214 2.312535423847214 2.312535423847214 2.312535423847214 2.312535423847214 2.312535423847214
          2.312535423847214 2.312535423847214 2.312535423847214 2.312535423847214 2.312535423847214 2.312535423847214
          2.312535423847214 2.312535423847214 2.312535423847214 2.312535423847214 2.312535423847214 1.0164343800012545
          1.0051126332197535 0.9913486979902428 0.9752107721209579 0.9566431500474113 0.9347075499814501 0.9060768827245993
          0.8636799698902408 0.7960132809100597 0.6930187303092223 0.5798262659441858 0.5380825460825273 0.6904661609233331
          1.165722286433238 1.9555993706393693 2.312535423847214 2.312535423847214 2.312535423847214 2.312535423847214
          2.312535423847214 2.312535423847214 2.312535423847214 2.312535423847214 2.312535423847214 2.312535423847214
          2.312535423847214 2.312535423847214 2.312535423847214 2.312535423847214 2.312535423847214 2.312535423847214
          1.0255889088150842 1.0148880178136244 1.0021012415250403 0.9872533440932781 0.9701779119456966 0.9500072116358609
          0.9240658000104359 0.8858068979737431 0.8223387014193292 0.7144721477169049 0.5636916022393511 0.4467029451090272
          0.48426256116903527 0.8589570392173155 1.4893708581241492 2.312535423847214 2.312535423847214 2.312535423847214
          2.312535423847214 2.312535423847214 2.312535423847214 2.312535423847214 2.312535423847214 2.312535423847214
          2.312535423847214 2.312535423847214 2.312535423847214 2.312535423847214 2.312535423847214 2.312535423847214
          2.312535423847214 1.032458866324577 1.0221567025164984 1.0099453831948082 0.9960451157034639 0.9801492740585288
          0.9613373530676605 0.9370529862262597 0.9017168308269199 0.8429830520297423 0.7381638043351854 0.5712366448187411
          0.39744011214347535 0.34539589515563546 0.5655513328749818 1.1470668489756966 1.9173505303184193 2.312535423847214
          2.312535423847214 2.312535423847214 2.312535423847214 2.312535423847214 2.312535423847214 2.312535423847214
          2.312535423847214 2.312535423847214 2.312535423847214 2.312535423847214 2.312535423847214 2.312535423847214
          2.312535423847214 2.312535423847214 1.0382568530045093 1.0281778955947178 1.016252180453811 1.0027939110453619
          0.9875776851926581 0.9695188430466277 0.9462050600995796 0.9127092912224614 0.8577498289870783 0.7578921871666552
          0.5868634419777823 0.3770833826292567 0.25183410407216505 0.34370903777388034 0.8060359781323375 1.50635247439885
          2.312535423847214 2.312535423847214 2.312535423847214 2.312535423847214 2.312535423847214 2.312535423847214
          2.312535423847214 2.312535423847214 2.312535423847214 2.312535423847214 2.312535423847214 2.312535423847214
          2.312535423847214 2.312535423847214 2.312535423847214 1.0432111275442988 1.0332400704923446 1.0215106128112295
          1.0081954062483198 0.9932143562053662 0.975459410214068 0.9525482865470752 0.9201259282174549 0.8678985753269488
          0.7729004413466463 0.6032978549108222 0.3724214335425692 0.19045938565954787 0.1857562575674077 0.4897370824916966
          1.1526672841203065 2.0733452547357336 2.312535423847214 2.312535423847214 2.312535423847214 2.312535423847214
          2.312535423847214 2.312535423847214 2.312535423847214 2.312535423847214 2.312535423847214 2.312535423847214
          2.312535423847214 2.312535423847214 2.312535423847214 2.312535423847214 1.0468127584999014 1.0369764507587214
          1.0254183825842613 1.0123256722803857 0.9973941089040721 0.9796910357745916 0.9568601531430501 0.9249856526742387
          0.874586187834849 0.7838502945831385 0.6180202552479792 0.37502832502402195 0.15058618046199893 0.06985870300822448
          0.24039194870224342 0.8082707552824924 1.668932367259167 2.312535423847214 2.312535423847214 2.312535423847214
          2.312535423847214 2.312535423847214 2.312535423847214 2.312535423847214 2.312535423847214 2.312535423847214
          2.312535423847214 2.312535423847214 2.312535423847214 2.312535423847214 2.312535423847214 1.0491998952982586
          1.039532069500255 1.0280775240750546 1.0151741329833242 1.0002699746639978 0.9824645955222455 0.9595916347591233
          0.9278985495537257 0.878687832925242 0.7914068613010093 0.630081004555554 0.3803442286613639 0.12353021607689783
          -0.017957880315164668 0.054864747997860355 0.5002726136063473 1.3496649108358514 2.312535423847214 2.312535423847214
          2.312535423847214 2.312535423847214 2.312535423847214 2.312535423847214 2.312535423847214 2.312535423847214
          2.312535423847214 2.312535423847214 2.312535423847214 2.312535423847214 2.312535423847214 2.312535423847214
          1.050876450532089 1.0414374751306266 1.0300846473792973 1.0170502498966763 1.0020648232413367 0.9840901687025133
          0.9610509585360325 0.9292857747931137 0.8807530791522952 0.7961967584224918 0.6393305373008619 0.38597485383241714
          0.10364027663320337 -0.08598690422991671 -0.08217868111138765 0.2566154101449809 1.1292988991812032 2.312535423847214
          2.312535423847214 2.312535423847214 2.312535423847214 2.312535423847214 2.312535423847214 2.312535423847214
          2.312535423847214 2.312535423847214 2.312535423847214 2.312535423847214 2.312535423847214 2.312535423847214
          2.312535423847214 1.0524163578818402 1.0430898438196152 1.0317728719024406 1.0184271988121347 1.003105811904095
          0.9848746199178149 0.9615038692462388 0.9294219818744759 0.8811536653194971 0.7986962993989385 0.6460023141954878
          0.3911193312592772 0.08794780811775334 -0.1379448599863067 -0.17948253825539073 0.09593515820675179 1.1094202640493267
          2.312535423847214 2.312535423847214 2.312535423847214 2.312535423847214 2.312535423847214 2.312535423847214
          2.312535423847214 2.312535423847214 2.312535423847214 2.312535423847214 2.312535423847214 2.312535423847214
          2.312535423847214 2.312535423847214 1.0539090800149526 1.0446565286249576 1.0331758356203442 1.0195039563247168
          1.0036985464870116 0.9849797386971251 0.961093751743184 0.9284732822788786 0.8800612382891719 0.7989966380027705
          0.6500839015400108 0.39524351120619744 0.07548720993215671 -0.17499342405805032 -0.23792916686213342 0.04067195885140459
          1.3446939149143966 2.312535423847214 2.312535423847214 2.312535423847214 2.312535423847214 2.312535423847214
          2.312535423847214 2.312535423847214 2.312535423847214 2.312535423847214 2.312535423847214 2.312535423847214
          2.312535423847214 2.312535423847214 2.312535423847214 1.0553677879870866 1.0460989606628428 1.0344015112613556
          1.0203565975173041 1.0039297943404433 0.9843957275044443 0.9597799819239946 0.9264428909080636 0.877553965845177
          0.7972735494852855 0.6516051813419924 0.39811440837479556 0.06679146747770072 -0.1949575618695932 -0.24568598205153086
          0.16828536048692141 1.65191306059219 2.312535423847214 2.312535423847214 2.312535423847214 2.312535423847214
          2.312535423847214 2.312535423847214 2.312535423847214 2.312535423847214 2.312535423847214 2.312535423847214
          2.312535423847214 2.312535423847214 2.312535423847214 2.312535423847214 1.0566979426503695 1.047210252497489
          1.0351263826889825 1.0205265333536087 1.003269294973466 0.9827467768858565 0.9572722354983285 0.923121681523869
          0.8735967105482405 0.7937254586029795 0.6510926924761459 0.40096631082209233 0.06466884773723552 -0.18941740607549154
          -0.15247011432064012 0.678606847821899 2.3105982662784195 2.312535423847214 2.312535423847214 2.312535423847214
          2.312535423847214 2.312535423847214 2.312535423847214 2.312535423847214 2.312535423847214 2.312535423847214
          2.312535423847214 2.312535423847214 2.312535423847214 2.312535423847214 2.312535423847214 1.0572990770769013
          1.04747184220287 1.0348221695909992 1.0193453373776744 1.0011476519818927 0.9796716683196024 0.9532581373732069
          0.9182053809175995 0.8679739540299318 0.7884547032506992 0.6492228716760078 0.40542453200318646 0.0747658803767367
          -0.12306370404455248 0.2577281258463006 1.4475433708621206 2.312535423847214 2.312535423847214 2.312535423847214
          2.312535423847214 2.312535423847214 2.312535423847214 2.312535423847214 2.312535423847214 2.312535423847214
          2.312535423847214 2.312535423847214 2.312535423847214 2.312535423847214 2.312535423847214 2.312535423847214
          1.0570199938795972 1.0465423806186704 1.0330849305393102 1.0165558590291355 0.9973939765043809 0.9750037972465279
          0.9475649179874498 0.9115570250953431 0.8606392802483057 0.7816959648807965 0.646826298233906 0.4140612477760288
          0.11377226481328744 0.24134599287148192 1.1587254588907565 2.312535423847214 2.312535423847214 2.312535423847214
          2.312535423847214 2.312535423847214 2.312535423847214 2.312535423847214 2.312535423847214 2.312535423847214
          2.312535423847214 2.312535423847214 2.312535423847214 2.312535423847214 2.312535423847214 2.312535423847214
          2.312535423847214 1.0560270550777353 1.0446296878959573 1.0300302683084297 1.012330639286741 0.9920748473426253
          0.96859638580705 0.9400929114660642 0.9031449362890908 0.8517083406336801 0.7740657192398064 0.6455750448537947
          0.43396922079370964 0.2950305019682657 1.1384745018226983 2.312535423847214 2.312535423847214 2.312535423847214
          2.312535423847214 2.312535423847214 2.312535423847214 2.312535423847214 2.312535423847214 2.312535423847214
          2.312535423847214 2.312535423847214 2.312535423847214 2.312535423847214 2.312535423847214 2.312535423847214
          2.312535423847214 2.312535423847214 1.0543639436625236 1.0416576000626023 1.0255311573946695 1.0064226943375387
          0.9849081002310973 0.9603632313292563 0.9308904280517275 0.8931650962713533 0.8417918184916544 0.766732101986434
          0.6493224550735865 0.4970694999653531 0.8783260116870434 2.312535423847214 2.312535423847214 2.312535423847214
          2.312535423847214 2.312535423847214 2.312535423847214 2.312535423847214 2.312535423847214 2.312535423847214
          2.312535423847214 2.312535423847214 2.312535423847214 2.312535423847214 2.312535423847214 2.312535423847214
          2.312535423847214 2.312535423847214 2.312535423847214 1.0514373701138542 1.037043816405634 1.0192539010637538
          0.9986288217990283 0.9758935266560617 0.9504550605036957 0.9201794056788619 0.8821258864938971 0.8317912332083555
          0.7619214129839514 0.6687858503983736 0.7263481641908146 1.9327834800644088 2.312535423847214 2.312535423847214
          2.312535423847214 2.312535423847214 2.312535423847214 2.312535423847214 2.312535423847214 2.312535423847214
          2.312535423847214 2.312535423847214 2.312535423847214 2.312535423847214 2.312535423847214 2.312535423847214
          2.312535423847214 2.312535423847214 2.312535423847214 2.312535423847214 1.047035098748577 1.0306560106332683
          1.0110645568174512 0.9891309780536525 0.9655443122964501 0.9392804968438463 0.9085179893095021 0.8708094932495164
          0.8229913769670902 0.7648052989985707 0.7479071855019047 1.3981027292856179 2.312535423847214 2.312535423847214
          2.312535423847214 2.312535423847214 2.312535423847214 2.312535423847214 2.312535423847214 2.312535423847214
          2.312535423847214 2.312535423847214 2.312535423847214 2.312535423847214 2.312535423847214 2.312535423847214
          2.312535423847214 2.312535423847214 2.312535423847214 2.312535423847214 2.312535423847214 1.0414607154994155
          1.0228920060523874 1.001533569907092 0.9785881567277694 0.9541901130869057 0.9273177287965833 0.8966227916284832
          0.8601229098561406 0.818120014113739 0.7943063260656896 1.0166830086287588 2.312535423847214 2.312535423847214
          2.312535423847214 2.312535423847214 2.312535423847214 2.312535423847214 2.312535423847214 2.312535423847214
          2.312535423847214 2.312535423847214 2.312535423847214 2.312535423847214 2.312535423847214 2.312535423847214
          2.312535423847214 2.312535423847214 2.312535423847214 2.312535423847214 2.312535423847214 2.312535423847214
          1.034427675438111 1.0139352815289395 0.9910676083960513 0.9671474263195189 0.9420990191479264 0.915238126229795
          0.8852354816399371 0.8516019149375278 0.826342532546779 0.9268899679790293 1.7101877211670442 2.312535423847214
          2.312535423847214 2.312535423847214 2.312535423847214 2.312535423847214 2.312535423847214 2.312535423847214
          2.312535423847214 2.312535423847214 2.312535423847214 2.312535423847214 2.312535423847214 2.312535423847214
          2.312535423847214 2.312535423847214 2.312535423847214 2.312535423847214 2.312535423847214 2.312535423847214
          2.312535423847214 1.0257239373824771 1.0037411178370084 0.9799052705157283 0.9551923407626215 0.9300160428277996
          0.9037793173854305 0.875333012659101 0.8504200940452862 0.8933559074605448 1.376607172637963 2.312535423847214
          2.312535423847214 2.312535423847214 2.312535423847214 2.312535423847214 2.312535423847214 2.312535423847214
          2.312535423847214 2.312535423847214 2.312535423847214 2.312535423847214 2.312535423847214 2.312535423847214
          2.312535423847214 2.312535423847214 2.312535423847214 2.312535423847214 2.312535423847214 2.312535423847214
          2.312535423847214 2.312535423847214 1.0156642336054658 0.9927088158314278 0.9683388197330888 0.9435417432087104
          0.9190158908329529 0.8937323337420778 0.8704633159537457 0.8851924998838654 1.2280571207415978 2.312535423847214
          2.312535423847214 2.312535423847214 2.312535423847214 2.312535423847214 2.312535423847214 2.312535423847214
          2.312535423847214 2.312535423847214 2.312535423847214 2.312535423847214 2.312535423847214 2.312535423847214
          2.312535423847214 2.312535423847214 2.312535423847214 2.312535423847214 2.312535423847214 2.312535423847214
          2.312535423847214 2.312535423847214 2.312535423847214 1.0047079362373168 0.9812700572657548 0.9570549671580183
          0.9334641434688693 0.9100943112303311 0.888715113374924 0.8933020871615203 1.1445070449729429 2.2345698116983126
          2.312535423847214 2.312535423847214 2.312535423847214 2.312535423847214 2.312535423847214 2.312535423847214
          2.312535423847214 2.312535423847214 2.312535423847214 2.312535423847214 2.312535423847214 2.312535423847214
          2.312535423847214 2.312535423847214 2.312535423847214 2.312535423847214 2.312535423847214 2.312535423847214
          2.312535423847214 2.312535423847214 2.312535423847214 2.312535423847214 0.9938047969442376 0.9705622944640003
          0.9480164038387311 0.9263053708655556 0.9074342920974316 0.9110214189905191 1.1161843067196007 2.18618364594431
          2.312535423847214 2.312535423847214 2.312535423847214 2.312535423847214 2.312535423847214 2.312535423847214
          2.312535423847214 2.312535423847214 2.312535423847214 2.312535423847214 2.312535423847214 2.312535423847214
          2.312535423847214 2.312535423847214 2.312535423847214 2.312535423847214 2.312535423847214 2.312535423847214
          2.312535423847214 2.312535423847214 2.312535423847214 2.312535423847214 2.312535423847214 0.9841373408385492
          0.962358577299567 0.942414582937527 0.9267666519570016 0.9362957665673498 1.1304710559695088 2.2064826908875195
          2.312535423847214 2.312535423847214 2.312535423847214 2.312535423847214 2.312535423847214 2.312535423847214
          2.312535423847214 2.312535423847214 2.312535423847214 2.312535423847214 2.312535423847214 2.312535423847214
          2.312535423847214 2.312535423847214 2.312535423847214 2.312535423847214 2.312535423847214 2.312535423847214
          2.312535423847214 2.312535423847214 2.312535423847214 2.312535423847214 2.312535423847214 2.312535423847214
          0.9760338772988868 0.9574179935651772 0.9453976503976412 0.967815980383964 1.1735263901528719 2.2569994854602133
          2.312535423847214 2.312535423847214 2.312535423847214 2.312535423847214 2.312535423847214 2.312535423847214
          2.312535423847214 2.312535423847214 2.312535423847214 2.312535423847214 2.312535423847214 2.312535423847214
          2.312535423847214 2.312535423847214 2.312535423847214 2.312535423847214 2.312535423847214 2.312535423847214
          2.312535423847214 2.312535423847214 2.312535423847214 2.312535423847214 2.312535423847214 2.312535423847214
          2.312535423847214 
        </DataArray>
      </PointData>
      <CellData>
        <DataArray type="Float32" Name="averaged zvalue" NumberOfComponents="1" format="ascii" RangeMin="-0.21339153371032693" RangeMax="2.312535423847214">
          0.9385558179477163 0.9244107588144792 0.9168410103425 0.9215407047515036 0.9400443306330519 0.9668122770090524
          0.9767210400290617 0.9477345454760739 0.9637710480611977 1.2239049968841622 1.7533576679779392 2.1879475204636094
          2.312535423847214 2.312535423847214 2.312535423847214 2.312535423847214 2.312535423847214 2.312535423847214
          2.312535423847214 2.312535423847214 2.312535423847214 2.312535423847214 2.312535423847214 2.312535423847214
          2.312535423847214 2.312535423847214 2.312535423847214 2.312535423847214 2.312535423847214 2.312535423847214
          0.9558843352726971 0.9383420577935792 0.9198016586340747 0.9033837884607195 0.8924233517741804 0.8883543546776247
          0.890748340124401 0.8894892440090806 0.8729637277214045 0.9236157375097298 1.2417172707519686 1.8153915084629608
          2.223371533533241 2.312535423847214 2.312535423847214 2.312535423847214 2.312535423847214 2.312535423847214
          2.312535423847214 2.312535423847214 2.312535423847214 2.312535423847214 2.312535423847214 2.312535423847214
          2.312535423847214 2.312535423847214 2.312535423847214 2.312535423847214 2.312535423847214 2.312535423847214
          0.9741062355277137 0.9580329622039705 0.939216281225032 0.9180079616163476 0.8949695297952445 0.8702781710767178
          0.8440961747079332 0.8190883202086684 0.7994938549482227 0.7949996423036846 0.9087837768189096 1.328751006209959
          1.9500400931150588 2.2870899269793115 2.312535423847214 2.312535423847214 2.312535423847214 2.312535423847214
          2.312535423847214 2.312535423847214 2.312535423847214 2.312535423847214 2.312535423847214 2.312535423847214
          2.312535423847214 2.312535423847214 2.312535423847214 2.312535423847214 2.312535423847214 2.312535423847214
          0.9905424972392571 0.9760818789134585 0.9590697011703702 0.9392186220321895 0.9157821974869564 0.8868248571412631
          0.849097501675429 0.8000827151672291 0.745278512995326 0.7061746368717444 0.730594076042739 0.9523152611719117
          1.5168702988579266 2.104222567911215 2.312535423847214 2.312535423847214 2.312535423847214 2.312535423847214
          2.312535423847214 2.312535423847214 2.312535423847214 2.312535423847214 2.312535423847214 2.312535423847214
          2.312535423847214 2.312535423847214 2.312535423847214 2.312535423847214 2.312535423847214 2.312535423847214
          1.0045195481816172 0.9913327719032868 0.9757506191443929 0.957663882159359 0.93636257974799 0.9095704617837331
          0.8723421229068912 0.8170579124825519 0.7381522873959157 0.6518660017515844 0.6087489608507739 0.7144131316363762
          1.0979811391916443 1.7537307671236622 2.2233014105452527 2.312535423847214 2.312535423847214 2.312535423847214
          2.312535423847214 2.312535423847214 2.312535423847214 2.312535423847214 2.312535423847214 2.312535423847214
          2.312535423847214 2.312535423847214 2.312535423847214 2.312535423847214 2.312535423847214 2.312535423847214
          1.0155059849624293 1.0033626476371653 0.9889785139323799 0.972321294551836 0.9528839559026048 0.9287143610880865
          0.8949073876497547 0.8419597125483431 0.7564607150888791 0.6377521865524161 0.5320758398437728 0.5398785533209808
          0.7998520119357304 1.3674123886035179 2.0175102691144864 2.312535423847214 2.312535423847214 2.312535423847214
          2.312535423847214 2.312535423847214 2.312535423847214 2.312535423847214 2.312535423847214 2.312535423847214
          2.312535423847214 2.312535423847214 2.312535423847214 2.312535423847214 2.312535423847214 2.312535423847214
          1.0237731238674461 1.0122728362624929 0.9988362711291475 0.9834064114502418 0.9654179376769367 0.9431158377350543
          0.9121606287593396 0.8632113705624336 0.7794894263752905 0.6468910497775455 0.49476782607764874 0.41845037839429333
          0.563541707104242 1.0152365197980358 1.7165809153163698 2.213739200465015 2.312535423847214 2.312535423847214
          2.312535423847214 2.312535423847214 2.312535423847214 2.312535423847214 2.312535423847214 2.312535423847214
          2.312535423847214 2.312535423847214 2.312535423847214 2.312535423847214 2.312535423847214 2.312535423847214
          1.0302625793600757 1.0191330404399588 1.0062591475993612 0.9916414965000031 0.9746457888413689 0.9535285606100319
          0.924421042093805 0.8787897507665504 0.7991972181296653 0.6635390195745909 0.4831558953923139 0.3429383735001331
          0.37662259246916563 0.7155907994392241 1.3442014579563257 2.012193463102924 2.312535423847214 2.312535423847214
          2.312535423847214 2.312535423847214 2.312535423847214 2.312535423847214 2.312535423847214 2.312535423847214
          2.312535423847214 2.312535423847214 2.312535423847214 2.312535423847214 2.312535423847214 2.312535423847214
          1.0357214866589677 1.0247951898380256 1.0121880276396806 0.9979453396729264 0.98144257366468 0.9609328999768376
          0.9328971415216428 0.8896209059384859 0.8141102582068321 0.6802384813504765 0.48491652826510756 0.29794957647588466
          0.24293969626825024 0.45630958899133056 0.9886982047857976 1.7612251092755258 2.2527378815693435 2.312535423847214
          2.312535423847214 2.312535423847214 2.312535423847214 2.312535423847214 2.312535423847214 2.312535423847214
          2.312535423847214 2.312535423847214 2.312535423847214 2.312535423847214 2.312535423847214 2.312535423847214
          1.0400601018238165 1.0292863791616391 1.0168625184810491 1.002782385909536 0.9864397277745245 0.9661397214196963
          0.9386300051454547 0.8968990860133728 0.8248088747728957 0.6945172115221465 0.49219196718134817 0.2721238311720345
          0.14916513167429474 0.24643599794239307 0.6727667676491847 1.4258039153494249 2.0918371174223322 2.312535423847214
          2.312535423847214 2.312535423847214 2.312535423847214 2.312535423847214 2.312535423847214 2.312535423847214
          2.312535423847214 2.312535423847214 2.312535423847214 2.312535423847214 2.312535423847214 2.312535423847214
          1.043130293514284 1.032501106729573 1.0202489279807565 1.006290972207945 0.9899549287162267 0.9696518547997526
          0.9423339975325344 0.9015395557470138 0.8321327941610597 0.7058396039219204 0.5008684533722298 0.25737223755607064
          0.08150430480798915 0.0867893798482909 0.4009500163972359 1.0817851617459646 1.9109170314473616 2.312535423847214
          2.312535423847214 2.312535423847214 2.312535423847214 2.312535423847214 2.312535423847214 2.312535423847214
          2.312535423847214 2.312535423847214 2.312535423847214 2.312535423847214 2.312535423847214 2.312535423847214
          1.0452614726153073 1.0347829290213084 1.022596638583588 1.0086397951963337 0.9922223905325234 0.9717993393799786
          0.9444567294104989 0.9041563091060942 0.8367611329502596 0.7142537903949793 0.5089326560875492 0.24837239380097056
          0.03080642704125496 -0.03281467941465217 0.18239352265945025 0.8089629584420958 1.7760086644278705 2.312535423847214
          2.312535423847214 2.312535423847214 2.312535423847214 2.312535423847214 2.312535423847214 2.312535423847214
          2.312535423847214 2.312535423847214 2.312535423847214 2.312535423847214 2.312535423847214 2.312535423847214
          1.0469550318410428 1.0365962095579948 1.024333741997637 1.0101620209635607 0.9935338559414401 0.97287990410065
          0.9453156461124653 0.9051536252848454 0.8391999505733057 0.7200564773294451 0.515606759147011 0.2421705674606628
          -0.008085919866316679 -0.12139824589575046 0.022722337246238577 0.6478174328955657 1.7159475027312394 2.312535423847214
          2.312535423847214 2.312535423847214 2.312535423847214 2.312535423847214 2.312535423847214 2.312535423847214
          2.312535423847214 2.312535423847214 2.312535423847214 2.312535423847214 2.312535423847214 2.312535423847214
          1.0485179525853414 1.0381737699918394 1.025719965664909 1.0111838783819893 0.9941646792515115 0.9731129949010907
          0.9451232212856944 0.904777541940506 0.8397269602525945 0.7234447882843018 0.5206122645502433 0.23744946512884618
          -0.03737581649861174 -0.18258749729047027 -0.07020114701484195 0.6476803240054699 1.7697962566645375 2.312535423847214
          2.312535423847214 2.312535423847214 2.312535423847214 2.312535423847214 2.312535423847214 2.312535423847214
          2.312535423847214 2.312535423847214 2.312535423847214 2.312535423847214 2.312535423847214 2.312535423847214
          1.05000808932246 1.0395832090423751 1.0268594751809301 1.011872223667369 0.9942509517572561 0.972562299967187
          0.9439474767135302 0.9031328443303228 0.8384713479056012 0.7244898175925149 0.523761750615749 0.23390914924771258
          -0.05691807712944652 -0.21339153371032693 -0.06866445739383456 0.8013910737112282 1.9054194558002535 2.312535423847214
          2.312535423847214 2.312535423847214 2.312535423847214 2.312535423847214 2.312535423847214 2.312535423847214
          2.312535423847214 2.312535423847214 2.312535423847214 2.312535423847214 2.312535423847214 2.312535423847214
          1.0513437359494469 1.0407092767776673 1.0276027562053127 1.0120205550462056 0.9935853984260525 0.971048680453156
          0.9416541974635639 0.9001788122063374 0.8355374211204206 0.7234242204766008 0.5254446482537566 0.23263525860295603
          -0.06322866318253711 -0.1956327660793139 0.11218402798416235 1.2023508837948573 2.1468955436412593 2.312535423847214
          2.312535423847214 2.312535423847214 2.312535423847214 2.312535423847214 2.312535423847214 2.312535423847214
          2.312535423847214 2.312535423847214 2.312535423847214 2.312535423847214 2.312535423847214 2.312535423847214
          1.0521697786069075 1.041157661745085 1.0274551057528163 1.0110722044216605 0.9917088480402044 0.9682372045192487
          0.937964358828251 0.8957244317549102 0.8309377066079628 0.7206239315014581 0.5266766017443582 0.23645639273481275
          -0.04326159550151795 -0.051805774648595884 0.55785205755242 1.6873209772024134 2.3120511344550154 2.312535423847214