<VTKFile type="PolyData" version="1.0" byte_order="LittleEndian" header_type="UInt64">
  <PolyData>
    <Piece NumberOfPoints="961" NumberOfVerts="0" NumberOfLines="0" NumberOfStrips="0" NumberOfPolys="900">
      <PointData>
        <DataArray type="Float32" Name="zvalue" NumberOfComponents="1" format="ascii" RangeMin="0.3881071810137769" RangeMax="2.312535423847214">
          2.312535423847214 2.312535423847214 2.312535423847214 2.312535423847214 2.312535423847214 2.312535423847214
          2.312535423847214 2.312535423847214 2.312535423847214 2.312535423847214 2.312535423847214 2.312535423847214
          2.312535423847214 2.312535423847214 2.312535423847214 2.312535423847214 2.312535423847214 2.312535423847214
          2.312535423847214 2.312535423847214 2.312535423847214 2.312535423847214 2.312535423847214 2.312535423847214
          2.312535423847214 2.312535423847214 2.312535423847214 2.312535423847214 2.312535423847214 2.312535423847214
          2.312535423847214 2.312535423847214 2.312535423847214 2.312535423847214 2.312535423847214 2.312535423847214
          2.312535423847214 2.312535423847214 2.312535423847214 2.312535423847214 2.312535423847214 2.312535423847214
          2.312535423847214 2.312535423847214 2.312535423847214 2.312535423847214 2.312535423847214 2.312535423847214
          2.312535423847214 2.312535423847214 2.312535423847214 2.312535423847214 2.312535423847214 2.312535423847214
          2.312535423847214 2.312535423847214 2.312535423847214 2.312535423847214 2.312535423847214 2.312535423847214
          2.312535423847214 2.312535423847214 2.312535423847214 2.312535423847214 2.312535423847214 2.312535423847214
          2.312535423847214 2.312535423847214 2.312535423847214 2.312535423847214 2.312535423847214 2.312535423847214
          2.312535423847214 2.312535423847214 2.312535423847214 2.312535423847214 2.312535423847214 2.312535423847214
          2.312535423847214 2.312535423847214 2.312535423847214 2.312535423847214 2.312535423847214 2.312535423847214
          2.312535423847214 2.312535423847214 2.312535423847214 2.312535423847214 2.312535423847214 2.312535423847214
          2.312535423847214 2.312535423847214 2.312535423847214 2.312535423847214 2.312535423847214 2.312535423847214
          2.312535423847214 2.312535423847214 2.312535423847214 2.312535423847214 2.312535423847214 2.312535423847214
          2.312535423847214 2.312535423847214 2.312535423847214 2.312535423847214 2.312535423847214 2.312535423847214
          2.312535423847214 2.312535423847214 2.312535423847214 2.312535423847214 2.312535423847214 2.312535423847214
          2.312535423847214 2.312535423847214 2.312535423847214 2.312535423847214 2.312535423847214 2.312535423847214
          2.312535423847214 2.312535423847214 2.312535423847214 2.312535423847214 2.312535423847214 2.312535423847214
          2.312535423847214 2.312535423847214 2.312535423847214 2.312535423847214 2.312535423847214 2.312535423847214
          2.312535423847214 2.312535423847214 2.312535423847214 2.312535423847214 2.312535423847214 2.312535423847214
          2.312535423847214 2.312535423847214 2.312535423847214 2.312535423847214 2.312535423847214 2.312535423847214
          2.312535423847214 2.312535423847214 2.312535423847214 2.312535423847214 2.312535423847214 2.312535423847214
          2.312535423847214 2.312535423847214 2.312535423847214 2.312535423847214 2.312535423847214 2.312535423847214
          2.312535423847214 2.312535423847214 2.312535423847214 2.312535423847214 2.312535423847214 2.312535423847214
          2.312535423847214 2.312535423847214 2.312535423847214 2.312535423847214 2.312535423847214 2.312535423847214
          2.312535423847214 2.312535423847214 2.312535423847214 2.312535423847214 2.312535423847214 2.312535423847214
          2.312535423847214 2.312535423847214 2.312535423847214 2.312535423847214 2.312535423847214 2.312535423847214
          2.312535423847214 2.312535423847214 2.312535423847214 2.312535423847214 2.312535423847214 2.312535423847214
          1.5295338041512978 1.627064528315838 1.9971587003699383 2.312535423847214 2.312535423847214 2.312535423847214
          2.312535423847214 2.312535423847214 2.312535423847214 2.312535423847214 2.312535423847214 2.312535423847214
          2.312535423847214 2.312535423847214 2.312535423847214 2.312535423847214 2.312535423847214 2.312535423847214
          2.312535423847214 2.312535423847214 2.312535423847214 2.312535423847214 2.312535423847214 2.312535423847214
          2.312535423847214 2.312535423847214 2.312535423847214 2.312535423847214 2.312535423847214 2.312535423847214
          2.312535423847214 1.266665158663647 1.2815600830247722 1.2996640619126207 1.3802717253467738 1.7290675978313426
          2.312535423847214 2.312535423847214 2.312535423847214 2.312535423847214 2.312535423847214 2.312535423847214
          2.312535423847214 2.312535423847214 2.312535423847214 2.312535423847214 2.312535423847214 2.312535423847214
          2.312535423847214 2.312535423847214 2.312535423847214 2.312535423847214 2.312535423847214 2.312535423847214
          2.312535423847214 2.312535423847214 2.312535423847214 2.312535423847214 2.312535423847214 2.312535423847214
          2.312535423847214 2.312535423847214 1.0625407868120533 1.0635088020420433 1.0740848143111255 1.0864598959945186
          1.1123420485244941 1.2276812877111276 1.6043382156638637 2.2329805038150425 2.312535423847214 2.312535423847214
          2.312535423847214 2.312535423847214 2.312535423847214 2.312535423847214 2.312535423847214 2.312535423847214
          2.312535423847214 2.312535423847214 2.312535423847214 2.312535423847214 2.312535423847214 2.312535423847214
          2.312535423847214 2.312535423847214 2.312535423847214 2.312535423847214 2.312535423847214 2.312535423847214
          2.312535423847214 2.312535423847214 2.312535423847214 0.9621212427904189 0.9351066564616661 0.9172492893399287
          0.9106248348529081 0.9144592932405353 0.9276586166821773 0.9797582570508583 1.1493545253114892 1.5605839506669006
          2.20292880709221 2.312535423847214 2.312535423847214 2.312535423847214 2.312535423847214 2.312535423847214
          2.312535423847214 2.312535423847214 2.312535423847214 2.312535423847214 2.312535423847214 2.312535423847214
          2.312535423847214 2.312535423847214 2.312535423847214 2.312535423847214 2.312535423847214 2.312535423847214
          2.312535423847214 2.312535423847214 2.312535423847214 2.312535423847214 0.9302416116920857 0.8849433082548481
          0.8481642609025206 0.8204300545045102 0.8022829767936424 0.7938848672416662 0.794385315894382 0.8217040653259116
          0.9046255043552702 1.1322250845923099 1.7356164471704574 2.312535423847214 2.312535423847214 2.312535423847214
          2.312535423847214 2.312535423847214 2.312535423847214 2.312535423847214 2.312535423847214 2.312535423847214
          2.312535423847214 2.312535423847214 2.312535423847214 2.312535423847214 2.312535423847214 2.312535423847214
          2.312535423847214 2.312535423847214 2.312535423847214 2.312535423847214 2.312535423847214 0.9382559440179323
          0.8824432206336363 0.8319098847032009 0.7881428362807351 0.7523972419833578 0.7262851998203395 0.7099875413250923
          0.7019093882490361 0.7102911005360939 0.7446674491849874 0.8817763590264514 1.352875728137987 2.168986164258096
          2.312535423847214 2.312535423847214 2.312535423847214 2.312535423847214 2.312535423847214 2.312535423847214
          2.312535423847214 2.312535423847214 2.312535423847214 2.312535423847214 2.312535423847214 2.312535423847214
          2.312535423847214 2.312535423847214 2.312535423847214 2.312535423847214 2.312535423847214 2.312535423847214
          0.9663965738842205 0.9075367968490441 0.8506548226937095 0.7969027311623416 0.7478234596896892 0.7051351745009901
          0.6707354642213927 0.6464631759183576 0.6308754285688514 0.6260493267385963 0.6290990565327275 0.6927419096975815
          1.0186202345468316 1.7194672203688681 2.312535423847214 2.312535423847214 2.312535423847214 2.312535423847214
          2.312535423847214 2.312535423847214 2.312535423847214 2.312535423847214 2.312535423847214 2.312535423847214
          2.312535423847214 2.312535423847214 2.312535423847214 2.312535423847214 2.312535423847214 2.312535423847214
          2.312535423847214 0.9999978248919593 0.9431878181351103 0.8861740387529541 0.8295413560262029 0.7741123647723914
          0.7213599826873597 0.6730499152577588 0.6313741112080493 0.5983509695078308 0.5737721116702703 0.5577884687257814
          0.5442691891122153 0.5610126433865213 0.7574437802182853 1.3235169200026833 2.246618283580005 2.312535423847214
          2.312535423847214 2.312535423847214 2.312535423847214 2.312535423847214 2.312535423847214 2.312535423847214
          2.312535423847214 2.312535423847214 2.312535423847214 2.312535423847214 2.312535423847214 2.312535423847214
          2.312535423847214 2.312535423847214 1.0296635589299805 0.9778715058925157 0.9249289164466041 0.8706914436243102
          0.8152887936057829 0.7593727487331288 0.7040079702327543 0.6509734943760048 0.6025964044277327 0.5610431623064515
          0.5270503089436822 0.5015325278784198 0.4805117063652112 0.47894377591515136 0.60814878353184 1.0492815741460404
          1.8624277583181965 2.312535423847214 2.312535423847214 2.312535423847214 2.312535423847214 2.312535423847214
          2.312535423847214 2.312535423847214 2.312535423847214 2.312535423847214 2.312535423847214 2.312535423847214
          2.312535423847214 2.312535423847214 2.312535423847214 1.0519285858003484 1.005506393023768 0.9579550153682659
          0.9089039417019164 0.8578766746972781 0.8045688932273894 0.7491310315735955 0.6923973267359187 0.6359404962158259
          0.5821495711964669 0.5333872438872066 0.49124401828597597 0.45767737587497076 0.4323659901623287 0.42329743153761185
          0.5201271646123998 0.9345973973503393 1.7580643839581287 2.312535423847214 2.312535423847214 2.312535423847214
          2.312535423847214 2.312535423847214 2.312535423847214 2.312535423847214 2.312535423847214 2.312535423847214
          2.312535423847214 2.312535423847214 2.312535423847214 2.312535423847214 1.066967987573221 1.0255083444047566
          0.9830725925584881 0.9393196391692025 0.8937405738469602 0.8457601523942611 0.7947964830409918 0.7406124325027461
          0.6836682517705863 0.6256059983922603 0.5686788693711851 0.5153677647603575 0.46795575120810406 0.42952366913644413
          0.40244733466873284 0.39261713802611636 0.47239615300324245 0.8670709143665302 1.6733149674070034 2.312535423847214
          2.312535423847214 2.312535423847214 2.312535423847214 2.312535423847214 2.312535423847214 2.312535423847214
          2.312535423847214 2.312535423847214 2.312535423847214 2.312535423847214 2.312535423847214 1.0751429855250103
          1.0383280891177837 1.000781505241907 0.9621468867464794 0.9219345798942391 0.8795751151127186 0.8343735462069672
          0.7857410530240725 0.7332345250419084 0.6771234708218102 0.6189350717257366 0.5611878800594304 0.5066685864333211
          0.4582630674962592 0.41915663890371474 0.39366388465652896 0.3881071810137769 0.4609692648564998 0.8227317683596737
          1.615278942001727 2.312535423847214 2.312535423847214 2.312535423847214 2.312535423847214 2.312535423847214
          2.312535423847214 2.312535423847214 2.312535423847214 2.312535423847214 2.312535423847214 2.312535423847214
          1.0775793575944173 1.044897333136822 1.011846020325422 0.9780711216547332 0.9431162831847594 0.9064281827927493
          0.8672859859373644 0.8249647981050254 0.7787259720081745 0.7282063771577693 0.6739265733446712 0.6173618975723373
          0.5610675085986627 0.5080652709405873 0.46234215207500945 0.42773332207342635 0.4083155798688594 0.4107004324074241
          0.4873635644566229 0.8259899189679855 1.5817060907670395 2.312535423847214 2.312535423847214 2.312535423847214
          2.312535423847214 2.312535423847214 2.312535423847214 2.312535423847214 2.312535423847214 2.312535423847214
          2.312535423847214 1.0755627261693106 1.0464420491969413 1.0175100986783907 0.9882936312800962 0.958380630516115
          0.9272419536933844 0.8941794588039237 0.8585727795206339 0.8195130070632715 0.7762688809774727 0.7286849173938466
          0.6774209527569867 0.6240849690285387 0.5712313978203648 0.5224215892452412 0.48231368211258424 0.45598652116568805
          0.4465390969982181 0.4594055698767379 0.5433326855947609 0.8397355847374091 1.479761654727745 2.312535423847214
          2.312535423847214 2.312535423847214 2.312535423847214 2.312535423847214 2.312535423847214 2.312535423847214
          2.312535423847214 2.312535423847214 1.0700162259335246 1.0437994044103849 1.0183068151238528 0.9931544374028751
          0.9678849713754036 0.9420224647388026 0.9150309191730617 0.886134415814371 0.854591056304982 0.8194869939686663
          0.7802235361360529 0.7368065147357182 0.6898745624383369 0.641232588414363 0.5937488785954232 0.5516071994030076
          0.519673355194126 0.5032043369013458 0.5049876422783949 0.528348972794449 0.5989960433142698 0.7936900181497761
          1.2748995960412173 2.2063604280369336 2.312535423847214 2.312535423847214 2.312535423847214 2.312535423847214
          2.312535423847214 2.312535423847214 2.312535423847214 1.0622716744927672 1.0384898732056993 1.0158219394346295
          0.99402310634386 0.9727538089443039 0.9515302286781163 0.9299198857932924 0.9072062656012905 0.8826561537405001
          0.8554714642786829 0.824940576879394 0.7905892638836148 0.7524090420365808 0.7112550164242238 0.6689220337970173
          0.6285926046059963 0.5947033675474166 0.5722380794038711 0.5652568862946956 0.5757498486036635 0.6033558109751364
          0.6535077388829701 0.7626327055348898 1.1431997171400226 2.283005101606012 2.312535423847214 2.312535423847214
          2.312535423847214 2.312535423847214 2.312535423847214 2.312535423847214 1.0537438889629984 1.032051704600392
          1.0118142809979227 0.9928294547860741 0.9748272370171739 0.9575044040244148 0.9402786835564042 0.922673037020267
          0.9041671778810335 0.8840541414370873 0.8616142865802426 0.8361539787425132 0.8072853971454645 0.7753090113566413
          0.7411703802786179 0.7066082258649283 0.674808079016308 0.6500040603900237 0.6365833435037155 0.6375104754019619
          0.6535284938775588 0.6828517760594267 0.725390222512396 0.8212909484414525 1.3861253462120655 2.312535423847214
          2.312535423847214 2.312535423847214 2.312535423847214 2.312535423847214 2.312535423847214 1.0455785108821376
          1.0255959537184285 1.0072819020414086 0.9905334010170572 0.9750682867223744 0.9606848426897482 0.9470084511719079
          0.9335015040324065 0.9198499930571462 0.905532561299248 0.889942825587041 0.8724397824382373 0.8525966849597622
          0.8302739638013293 0.8057354356424263 0.779899694930717 0.7545958330306445 0.7324776097582927 0.7172507493471669
          0.712594128806991 0.7206328730989725 0.7411877848573353 0.7721154730956056 0.8158023546418055 0.997721935168009
          2.045644553281752 2.312535423847214 2.312535423847214 2.312535423847214 2.312535423847214 2.312535423847214
          1.0380864119317141 1.0195737389080424 1.0028414370512129 0.9878212148841521 0.9744154333244534 0.9624261014472315
          0.9515853577490616 0.9415266708380177 0.9318519022131952 0.9221478042639107 0.9120410888505953 0.9011897220652545
          0.8892231112957563 0.8760100735714762 0.8614371899873253 0.8458322520938493 0.8300543813449194 0.8156360274718424
          0.8048949867311412 0.8007865206441533 0.8062777554867405 0.8229704961863235 0.8503957639975407 0.8868198718852673
          0.9575176308353234 1.5051020142613585 2.312535423847214 2.312535423847214 2.312535423847214 2.312535423847214
          2.312535423847214 1.0321640851398788 1.0146876431171512 0.9993020810890103 0.9858166625740863 0.9741196761005911
          0.9640729847071136 0.9554564269229696 0.948066727703957 0.9416316807192332 0.9358262882688558 0.9304107049692036
          0.9252831316626416 0.9203066652344128 0.9153649329711726 0.9102921104777527 0.9050094736309255 0.8999485560523691
          0.8959531613993131 0.8942248610808744 0.8966321920423371 0.9058573893456813 0.9244997241828509 0.9542337225606314
          0.9955746035900161 1.056106042496569 1.3040002062646041 2.312535423847214 2.312535423847214 2.312535423847214
          2.312535423847214 2.312535423847214 1.0286603587497496 1.012001822985374 0.9977103483700286 0.9855857677064899
          0.9754875434367498 0.9671855901079269 0.9605908703885461 0.9556269629404158 0.9520831511147109 0.9497887555593014
          0.9486433944750241 0.9486641544986754 0.9498254084896356 0.9521585262950695 0.9555347977445432 0.9598123948770866
          0.9651491730153495 0.9720353396186271 0.981106013149132 0.9934851759963311 1.0109761757224394 1.0361922744050016
          1.0720071377398754 1.1216904673697934 1.1935315337929118 1.3539759259708262 2.0696861530573356 2.312535423847214
          2.312535423847214 2.312535423847214 2.312535423847214 1.0288814577088947 1.012967584472327 0.9996571036365741
          0.9887554039095409 0.9801052794200793 0.9735373799398396 0.968937276122385 0.9662984081555597 0.9655955696880358
          0.9667660926172601 0.969705951874041 0.9745141820246598 0.9813788259754894 0.9903953916335622 1.0014282242383534
          1.0143625258453506 1.029265905426725 1.0463207660282758 1.065954140444715 1.088849116668344 1.1161253092601682
          1.1497465450267879 1.1925874703888164 1.2493628075487162 1.3307671431374326 1.483111111165607 1.9361321432995244
          2.312535423847214 2.312535423847214 2.312535423847214 2.312535423847214 1.0347574505954285 1.019332219890218
          1.006899044488845 0.9971506656236319 0.9898799494156565 0.985011504476259 0.9824999614839637 0.9823740816121771
          0.9846723201096714 0.9893956591303297 0.9965802788688961 1.0064657084356283 1.0191630326804095 1.03475707013182
          1.0531999931266742 1.0744879208219482 1.0984941921462432 1.125225739850478 1.1548338666574662 1.18738052923107
          1.2235296550333694 1.264767684797819 1.3137987620880351 1.3764251655573954 1.4651249765680237 1.6206633554241436
          2.0286546841254953 2.312535423847214 2.312535423847214 2.312535423847214 2.312535423847214 1.0490636128146487
          1.0339450344726586 1.0222436446619838 1.0134968482951043 1.0075595950377845 1.004328453545903 1.0038822413305635
          1.006366580197204 1.0119008108015877 1.0206505062194748 1.0327813953695109 1.048419608362954 1.0676599725333038
          1.0905860393477222 1.1172073724172604 1.1473601649948713 1.180898884786208 1.2176826698910022 1.257540806447547
          1.3000505794127712 1.3450048436639535 1.393119570148147 1.4477550955195888 1.5167030477667234 1.6151332386999073
          1.7841908680561904 2.1874428544518345 2.312535423847214 2.312535423847214 2.312535423847214 2.312535423847214
          1.0748591984917297 1.0593403556463914 1.047946995101557 1.040055692383942 1.0354045110658698 1.033985003147304
          1.0359947848286146 1.0416769236634373 1.0513153281724406 1.0652139190330512 1.083527138688915 1.1063391490979184
          1.1337257637150482 1.165731886864439 1.202196609753375 1.2428243799634826 1.2873908413826032 1.3354924829613333
          1.3866193872574057 1.4397139205388045 1.4937107256525801 1.549521455775553 1.6113897531487464 1.6897564561787073
          1.8051189032490782 1.9999172910199825 2.312535423847214 2.312535423847214 2.312535423847214 2.312535423847214
          2.312535423847214 
        </DataArray>
      </PointData>
      <CellData>
        <DataArray type="Float32" Name="averaged zvalue" NumberOfComponents="1" format="ascii" RangeMin="0.40197124906377324" RangeMax="2.312535423847214">
          2.312535423847214 2.312535423847214 2.312535423847214 2.312535423847214 2.312535423847214 2.312535423847214
          2.312535423847214 2.312535423847214 2.312535423847214 2.312535423847214 2.312535423847214 2.312535423847214
          2.312535423847214 2.312535423847214 2.312535423847214 2.312535423847214 2.312535423847214 2.312535423847214
          2.312535423847214 2.312535423847214 2.312535423847214 2.312535423847214 2.312535423847214 2.312535423847214
          2.312535423847214 2.312535423847214 2.312535423847214 2.312535423847214 2.312535423847214 2.312535423847214
          2.312535423847214 2.312535423847214 2.312535423847214 2.312535423847214 2.312535423847214 2.312535423847214
          2.312535423847214 2.312535423847214 2.312535423847214 2.312535423847214 2.312535423847214 2.312535423847214
          2.312535423847214 2.312535423847214 2.312535423847214 2.312535423847214 2.312535423847214 2.312535423847214
          2.312535423847214 2.312535423847214 2.312535423847214 2.312535423847214 2.312535423847214 2.312535423847214
          2.312535423847214 2.312535423847214 2.312535423847214 2.312535423847214 2.312535423847214 2.312535423847214
          2.312535423847214 2.312535423847214 2.312535423847214 2.312535423847214 2.312535423847214 2.312535423847214
          2.312535423847214 2.312535423847214 2.312535423847214 2.312535423847214 2.312535423847214 2.312535423847214
          2.312535423847214 2.312535423847214 2.312535423847214 2.312535423847214 2.312535423847214 2.312535423847214
          2.312535423847214 2.312535423847214 2.312535423847214 2.312535423847214 2.312535423847214 2.312535423847214
          2.312535423847214 2.312535423847214 2.312535423847214 2.312535423847214 2.312535423847214 2.312535423847214
          2.312535423847214 2.312535423847214 2.312535423847214 2.312535423847214 2.312535423847214 2.312535423847214
          2.312535423847214 2.312535423847214 2.312535423847214 2.312535423847214 2.312535423847214 2.312535423847214
          2.312535423847214 2.312535423847214 2.312535423847214 2.312535423847214 2.312535423847214 2.312535423847214
          2.312535423847214 2.312535423847214 2.312535423847214 2.312535423847214 2.312535423847214 2.312535423847214
          2.312535423847214 2.312535423847214 2.312535423847214 2.312535423847214 2.312535423847214 2.312535423847214
          2.312535423847214 2.312535423847214 2.312535423847214 2.312535423847214 2.312535423847214 2.312535423847214
          2.312535423847214 2.312535423847214 2.312535423847214 2.312535423847214 2.312535423847214 2.312535423847214
          2.312535423847214 2.312535423847214 2.312535423847214 2.312535423847214 2.312535423847214 2.312535423847214
          2.312535423847214 2.312535423847214 2.312535423847214 2.312535423847214 2.312535423847214 2.312535423847214
          2.312535423847214 2.312535423847214 2.312535423847214 2.312535423847214 2.312535423847214 2.312535423847214
          1.9454172950403907 2.062323519095051 2.233691242977895 2.312535423847214 2.312535423847214 2.312535423847214
          2.312535423847214 2.312535423847214 2.312535423847214 2.312535423847214 2.312535423847214 2.312535423847214
          2.312535423847214 2.312535423847214 2.312535423847214 2.312535423847214 2.312535423847214 2.312535423847214
          2.312535423847214 2.312535423847214 2.312535423847214 2.312535423847214 2.312535423847214 2.312535423847214
          2.312535423847214 2.312535423847214 2.312535423847214 2.312535423847214 2.312535423847214 2.312535423847214
          1.4262058935388886 1.5513618434057923 1.7474074778691366 1.9336025427181358 2.166668467343246 2.312535423847214
          2.312535423847214 2.312535423847214 2.312535423847214 2.312535423847214 2.312535423847214 2.312535423847214
          2.312535423847214 2.312535423847214 2.312535423847214 2.312535423847214 2.312535423847214 2.312535423847214
          2.312535423847214 2.312535423847214 2.312535423847214 2.312535423847214 2.312535423847214 2.312535423847214
          2.312535423847214 2.312535423847214 2.312535423847214 2.312535423847214 2.312535423847214 2.312535423847214
          1.1685687076356288 1.1797044403226404 1.2101201243912598 1.3270353169242823 1.5954065894785445 1.8642725877673547
          2.1155973917933335 2.292646693839171 2.312535423847214 2.312535423847214 2.312535423847214 2.312535423847214
          2.312535423847214 2.312535423847214 2.312535423847214 2.312535423847214 2.312535423847214 2.312535423847214
          2.312535423847214 2.312535423847214 2.312535423847214 2.312535423847214 2.312535423847214 2.312535423847214
          2.312535423847214 2.312535423847214 2.312535423847214 2.312535423847214 2.312535423847214 2.312535423847214
          1.0058193720265454 0.997487390538691 0.9971047086246203 1.005971518153114 1.0455353115395836 1.1848590942770068
          1.4916078754603135 1.8138636009101616 2.0971459013633846 2.285133769658463 2.312535423847214 2.312535423847214
          2.312535423847214 2.312535423847214 2.312535423847214 2.312535423847214 2.312535423847214 2.312535423847214
          2.312535423847214 2.312535423847214 2.312535423847214 2.312535423847214 2.312535423847214 2.312535423847214
          2.312535423847214 2.312535423847214 2.312535423847214 2.312535423847214 2.312535423847214 2.312535423847214
          0.9281032047997547 0.8963658787397408 0.8741171098999669 0.861949289847899 0.8595714384895053 0.873921764217271
          0.9363005408956602 1.109067011414893 1.4500908366766727 1.8458264406755478 2.1683056796780247 2.312535423847214
          2.312535423847214 2.312535423847214 2.312535423847214 2.312535423847214 2.312535423847214 2.312535423847214
          2.312535423847214 2.312535423847214 2.312535423847214 2.312535423847214 2.312535423847214 2.312535423847214
          2.312535423847214 2.312535423847214 2.312535423847214 2.312535423847214 2.312535423847214 2.312535423847214
          0.9089710211496256 0.8618651686235514 0.8221617590977417 0.7908132773905614 0.7687125714597516 0.75613573107037
          0.7569965776986055 0.784632514616578 0.8729522846671653 1.1235713349935517 1.5707009895455275 2.036733185022628
          2.276648108949934 2.312535423847214 2.312535423847214 2.312535423847214 2.312535423847214 2.312535423847214
          2.312535423847214 2.312535423847214 2.312535423847214 2.312535423847214 2.312535423847214 2.312535423847214
          2.312535423847214 2.312535423847214 2.312535423847214 2.312535423847214 2.312535423847214 2.312535423847214
          0.9236581338462083 0.8681361812198978 0.8169025687099968 0.771316567279031 0.7329102689985941 0.7030358449669536
          0.6822738924284696 0.6723847733180848 0.6779708262571322 0.7203980478706906 0.8891232633486869 1.3083060091601242
          1.8049022607552523 2.1642683729776273 2.312535423847214 2.312535423847214 2.312535423847214 2.312535423847214
          2.312535423847214 2.312535423847214 2.312535423847214 2.312535423847214 2.312535423847214 2.312535423847214
          2.312535423847214 2.312535423847214 2.312535423847214 2.312535423847214 2.312535423847214 2.312535423847214
          0.9542797534400835 0.8968883691077045 0.8408182371588021 0.7870949779126564 0.7371077454126076 0.6925701341668753
          0.6554056666513897 0.6267659213007724 0.6072619591213873 0.5966772409168438 0.6059746560170765 0.7041609941857875
          1.0141359696301266 1.5282408361092625 2.048801512819279 2.2960561387804117 2.312535423847214 2.312535423847214
          2.312535423847214 2.312535423847214 2.312535423847214 2.312535423847214 2.312535423847214 2.312535423847214
          2.312535423847214 2.312535423847214 2.312535423847214 2.312535423847214 2.312535423847214 2.312535423847214
          0.9876801769623915 0.9330405698067961 0.8778339387125178 0.8224084895071719 0.7675334724496656 0.7144476542277505
          0.6648513727686418 0.6208237448799044 0.5839406619780714 0.5549135129115463 0.5326601236650247 0.5218315166855919
          0.5694779764712923 0.7920133149169899 1.3068913903151422 1.8677157599728642 2.2000085074649594 2.312535423847214
          2.312535423847214 2.312535423847214 2.312535423847214 2.312535423847214 2.312535423847214 2.312535423847214
          2.312535423847214 2.312535423847214 2.312535423847214 2.312535423847214 2.312535423847214 2.312535423847214
          1.016242510911653 0.9665654576827885 0.9156198292852742 0.8631902134073219 0.8092767775658949 0.7542701609417171
          0.6991274557295684 0.6454769304388706 0.5954324085366193 0.5509075715834518 0.5133035247488211 0.4827414071011445
          0.4623747120794155 0.485688995286733 0.650213738456973 1.091608473606744 1.7169062408684694 2.1739176638749425
          2.312535423847214 2.312535423847214 2.312535423847214 2.312535423847214 2.312535423847214 2.312535423847214
          2.312535423847214 2.312535423847214 2.312535423847214 2.312535423847214 2.312535423847214 2.312535423847214
          1.0374778277005237 0.9930105863388196 0.9473127971994681 0.8999602073538393 0.8504865735414722 0.7985641400590595
          0.744234318463313 0.6881546268062693 0.6318410793937849 0.5774554207117797 0.5271694740761813 0.48306122753235203
          0.4468806965954619 0.42190860637627936 0.4346222672112152 0.5799344632480244 1.0080322121695602 1.6527464223947188
          2.1527303097371613 2.312535423847214 2.312535423847214 2.312535423847214 2.312535423847214 2.312535423847214
          2.312535423847214 2.312535423847214 2.312535423847214 2.312535423847214 2.312535423847214 2.312535423847214
          1.0514868516551927 1.0119226328307338 0.9713301559290193 0.9292854199142203 0.8852526053120446 0.8386263241887346
          0.7888808786936944 0.7358140655848283 0.6799080615066414 0.622585852577748 0.5660423964791774 0.5127949956153033
          0.4656027685685321 0.4273476775512877 0.40197124906377324 0.4116960891749162 0.5471358783100123 0.9560217287474267
          1.6059652754039044 2.1382213033858424 2.312535423847214 2.312535423847214 2.312535423847214 2.312535423847214