<VTKFile type="PolyData" version="1.0" byte_order="LittleEndian" header_type="UInt64">
  <PolyData>
    <Piece NumberOfPoints="961" NumberOfVerts="0" NumberOfLines="0" NumberOfStrips="0" NumberOfPolys="900">
      <PointData>
        <DataArray type="Float32" Name="zvalue" NumberOfComponents="1" format="ascii" RangeMin="0.7298922514419105" RangeMax="2.312535423847214">
          2.312535423847214 2.312535423847214 2.312535423847214 2.312535423847214 2.312535423847214 2.312535423847214
          2.312535423847214 2.312535423847214 2.312535423847214 2.312535423847214 2.312535423847214 2.312535423847214
          2.312535423847214 2.312535423847214 2.312535423847214 2.312535423847214 2.312535423847214 2.312535423847214
          2.312535423847214 2.312535423847214 2.312535423847214 2.312535423847214 2.312535423847214 2.312535423847214
          2.312535423847214 2.312535423847214 2.312535423847214 2.312535423847214 2.312535423847214 2.312535423847214
          2.312535423847214 2.312535423847214 2.312535423847214 2.312535423847214 2.312535423847214 2.312535423847214
          2.312535423847214 2.312535423847214 2.312535423847214 2.312535423847214 2.312535423847214 2.312535423847214
          2.312535423847214 2.312535423847214 2.312535423847214 2.312535423847214 2.312535423847214 2.312535423847214
          2.312535423847214 2.312535423847214 2.312535423847214 2.312535423847214 2.312535423847214 2.312535423847214
          2.312535423847214 2.312535423847214 2.312535423847214 2.312535423847214 2.312535423847214 2.312535423847214
          2.312535423847214 2.312535423847214 2.312535423847214 2.312535423847214 2.312535423847214 2.312535423847214
          2.312535423847214 2.312535423847214 2.312535423847214 2.312535423847214 2.312535423847214 2.312535423847214
          2.312535423847214 2.312535423847214 2.312535423847214 2.312535423847214 2.312535423847214 2.312535423847214
          2.312535423847214 2.312535423847214 2.312535423847214 2.312535423847214 2.312535423847214 2.312535423847214
          2.312535423847214 2.312535423847214 2.312535423847214 2.312535423847214 2.312535423847214 2.312535423847214
          2.312535423847214 2.312535423847214 2.312535423847214 2.312535423847214 2.312535423847214 2.312535423847214
          2.312535423847214 2.312535423847214 2.312535423847214 2.312535423847214 2.312535423847214 2.312535423847214
          2.312535423847214 2.312535423847214 2.312535423847214 2.312535423847214 2.312535423847214 2.312535423847214
          2.312535423847214 2.312535423847214 2.312535423847214 2.312535423847214 2.312535423847214 2.312535423847214
          2.312535423847214 2.312535423847214 2.312535423847214 2.312535423847214 2.312535423847214 2.312535423847214
          2.312535423847214 2.312535423847214 2.312535423847214 2.312535423847214 2.312535423847214 2.312535423847214
          2.312535423847214 2.312535423847214 2.312535423847214 2.312535423847214 2.312535423847214 2.312535423847214
          2.312535423847214 2.312535423847214 2.312535423847214 2.312535423847214 2.312535423847214 2.312535423847214
          2.312535423847214 2.312535423847214 2.312535423847214 2.312535423847214 2.312535423847214 2.24319631809356
          2.1761342184170798 2.1504408106916437 2.188820470834676 2.233110041983773 2.26631083110028 2.233931040117385
          2.2211223186014095 2.2741763843505955 2.312535423847214 2.312535423847214 2.312535423847214 2.312535423847214
          2.312535423847214 2.312535423847214 2.312535423847214 2.312535423847214 2.312535423847214 2.312535423847214
          2.312535423847214 2.312535423847214 2.312535423847214 2.312535423847214 2.312535423847214 2.312535423847214
          2.312535423847214 2.312535423847214 2.312535423847214 2.1115677518322267 1.7316602233841063 1.7451518576227254
          1.884013654129014 1.9387460121642521 1.955178836309163 1.9467364794775868 1.9673750678714903 2.000166899726121
          2.0504448210209922 2.1130032312202416 2.1934937828462306 2.2599207997673854 2.312535423847214 2.312535423847214
          2.312535423847214 2.312535423847214 2.312535423847214 2.312535423847214 2.312535423847214 2.312535423847214
          2.312535423847214 2.312535423847214 2.312535423847214 2.312535423847214 2.312535423847214 2.312535423847214
          2.312535423847214 2.2666778849566103 1.9684298211671594 1.5641412326477442 1.3868801847843581 1.7203701975483157
          1.89517474391112 1.9384060684286806 1.9671166589282436 1.9651750021284358 1.9383745897962583 1.928767322711259
          1.9324436853737348 1.963352535266333 2.0244558839952473 2.0951557208142497 2.1632572900398253 2.2327073436745013
          2.312535423847214 2.312535423847214 2.312535423847214 2.312535423847214 2.312535423847214 2.312535423847214
          2.312535423847214 2.312535423847214 2.312535423847214 2.312535423847214 2.312535423847214 2.2383687313833023
          1.785691392672181 1.5495136851852782 1.3863913431876076 1.135774128387051 1.1849594290877903 1.4581384502747399
          1.658405091662284 1.7410173645834002 1.7858117998942769 1.814547545609102 1.8159229481678025 1.8175788888834095
          1.8136121110744718 1.8219507480911112 1.855661683620099 1.9212318833294497 1.9913316521389854 2.0556342388721736
          2.132345798664841 2.2551582088603848 2.312535423847214 2.312535423847214 2.312535423847214 2.312535423847214
          2.312535423847214 2.312535423847214 2.312535423847214 2.312535423847214 2.312535423847214 2.2049653451591427
          1.5800409396191353 1.1569273962672033 0.9945947665967567 0.955359745019187 1.0162613230243702 1.1804308713334535
          1.352102325218525 1.4702465591951197 1.5384127739346858 1.593975138443181 1.6254975548021102 1.6407999692543345
          1.6602828545338757 1.6687412783318367 1.6906616422561997 1.7385058663454234 1.8025944353119723 1.8748283148656044
          1.9468695994370364 2.0393313926141117 2.1871484378696096 2.312535423847214 2.312535423847214 2.312535423847214
          2.312535423847214 2.312535423847214 2.312535423847214 2.312535423847214 2.312535423847214 2.312535423847214
          1.707005603370931 1.0573917209878307 0.9699937821637226 0.9663543229690414 0.9602499914342699 1.0192666276692732
          1.1192620070384727 1.2135277354089666 1.2925491854676447 1.350049968127646 1.4033824331215219 1.4437421886166413
          1.471719291295684 1.502268419712306 1.526910272222861 1.5580863743556614 1.616875172069552 1.6906048702445533
          1.7710402088173085 1.857418865303662 1.9787389621761002 2.15791221968423 2.312535423847214 2.312535423847214
          2.312535423847214 2.312535423847214 2.312535423847214 2.312535423847214 2.312535423847214 2.312535423847214
          2.312535423847214 1.318466490891367 0.9144351352815834 0.9811258691063155 0.9909906978018449 0.9867551202668494
          1.0103460975178018 1.050769539252791 1.0944558919883278 1.1458446470558292 1.1894420236819052 1.2367506849340248
          1.2830073983153902 1.3216457928303487 1.364243201306033 1.3994215172743163 1.4409458064541651 1.5090298451558903
          1.5935542874510882 1.6869048086034433 1.7999849752135568 1.9596329013071967 2.175543370064431 2.312535423847214
          2.312535423847214 2.312535423847214 2.312535423847214 2.312535423847214 2.312535423847214 2.312535423847214
          2.284259209001 1.7832306272703973 1.007503894684349 0.9118634314837701 0.9882992790943667 0.9935125412409533
          0.9895444566635945 0.9909808658419874 0.9963894342615088 1.0123458129481495 1.0427212599225921 1.0761281455833276
          1.1204867116316213 1.1638889801886705 1.2072307919065735 1.255848239287742 1.3007735220074463 1.3531938347575732
          1.4267530017322771 1.5232136628786244 1.6379183769114969 1.7858112233806904 1.9827511787702987 2.2318642231170025
          2.312535423847214 2.312535423847214 2.312535423847214 2.312535423847214 2.312535423847214 2.312535423847214
          2.312535423847214 1.881444794186338 1.1941370708311818 0.8097736903575473 0.893531111182544 0.9686723900091199
          0.9757408071897903 0.9720560971930078 0.9663641475252213 0.9614362033052356 0.9635659426379606 0.97864834539073
          1.0033143387720111 1.0396051172602923 1.0856466626780412 1.133955931092043 1.1869509933977016 1.2414122096048539
          1.3007710122093232 1.3791775274829383 1.4876979025973465 1.6274598576433874 1.8093461973067357 2.0378239046858093
          2.312535423847214 2.312535423847214 2.312535423847214 2.312535423847214 2.312535423847214 2.312535423847214
          2.312535423847214 2.312535423847214 1.8472198134162703 0.8390463419010266 0.7380618694409785 0.8647911760139182
          0.9389371615557192 0.9519788186066763 0.9492018707574416 0.9417887085483565 0.9337447662207524 0.9336320999504603
          0.9435277579699721 0.9635513608118651 0.9988785479010639 1.0454215997480218 1.0971862702252844 1.1548479887079695
          1.216175434563489 1.2796566110355598 1.3622263940436727 1.4833055341965675 1.648181274265388 1.8579169684388053
          2.1145489519125706 2.312535423847214 2.312535423847214 2.312535423847214 2.312535423847214 2.312535423847214
          2.312535423847214 2.312535423847214 2.312535423847214 1.815504433189577 0.7298922514419105 0.7314231864336868
          0.841554868898571 0.9122704820757034 0.9277905517993554 0.9256934539039101 0.9188345299600117 0.9131801828812067
          0.9147175345987782 0.9252462462950375 0.9461845464825308 0.9841909565504168 1.0355186100157554 1.0920837629957876
          1.1526141250943516 1.2164385722228397 1.2818785721188959 1.3685236321468546 1.5020912256109913 1.6903672790521957
          1.9258930521286912 2.2137012510895464 2.312535423847214 2.312535423847214 2.312535423847214 2.312535423847214
          2.312535423847214 2.312535423847214 2.312535423847214 2.312535423847214 1.734525254480622 0.758605628331185
          0.7360036070270409 0.8267819785587731 0.893836162091755 0.9076047279394832 0.9053311747221723 0.9007405957413589
          0.8988785524396572 0.903736331756076 0.9172258528313265 0.9431829836433215 0.9888776507003953 1.0489782728246282
          1.1115279387800692 1.1728815995004265 1.2340281127250925 1.3008504569374506 1.392254028215121 1.539350010860509
          1.75252981167849 2.0190531790570834 2.312535423847214 2.312535423847214 2.312535423847214 2.312535423847214
          2.312535423847214 2.312535423847214 2.312535423847214 2.312535423847214 2.283000555906777 2.006415178103368
          1.2537405870238694 0.8705934957169942 0.8236171609740678 0.8831422479280221 0.8929920940229147 0.8913078769264565
          0.8889285935512049 0.8899506606776736 0.898236642730574 0.9170608161425113 0.9511331756718883 1.009070893645435
          1.084442022004383 1.1536151257408016 1.213348094883883 1.26939501249375 1.336609819586616 1.4339424894714927
          1.5995058105636482 1.846191435275862 2.147717729230224 2.312535423847214 2.312535423847214 2.312535423847214
          2.312535423847214 2.312535423847214 2.312535423847214 2.312535423847214 2.312535423847214 2.312535423847214
          2.312535423847214 2.312535423847214 1.519545306612581 0.8778776153052674 0.8777467235180032 0.8836593717302761
          0.882945658436573 0.8828116739432335 0.8864497741566699 0.8975233990176871 0.9232154833031969 0.9680439773069935
          1.048590452624975 1.145678501323849 1.2288262684229057 1.2861157871061724 1.3319689321398556 1.3970157262479845
          1.5027474897773474 1.7010778534869941 1.984528952217627 2.312535423847214 2.312535423847214 2.312535423847214
          2.312535423847214 2.312535423847214 2.312535423847214 2.312535423847214 2.312535423847214 2.312535423847214
          2.312535423847214 2.312535423847214 2.312535423847214 2.312535423847214 1.1141147017399624 0.8761464205458082
          0.879091698833223 0.8795486697895878 0.8814541440420346 0.8875381512222116 0.9012029377813032 0.9336281719194762
          0.9947575619924838 1.1095545371427382 1.2387059489750867 1.3429354791668455 1.3985133561994911 1.4314497682601868
          1.4914785898587128 1.6147668314954322 1.856133804238438 2.179137104217009 2.312535423847214 2.312535423847214
          2.312535423847214 2.312535423847214 2.312535423847214 2.312535423847214 2.312535423847214 2.312535423847214
          2.312535423847214 2.312535423847214 2.312535423847214 2.312535423847214 2.312535423847214 1.522077250097308
          0.8771723638008202 0.8782134530562646 0.8796942927464453 0.8833902778961598 0.8913920059532837 0.9075075130263717
          0.9478691258852294 1.0301460904728774 1.1926149007584033 1.3661613999955122 1.4822812663367173 1.5469482754369337
          1.5744204766556844 1.6297456728209994 1.7829445289016923 2.0712363906111055 2.312535423847214 2.312535423847214
          2.312535423847214 2.312535423847214 2.312535423847214 2.312535423847214 2.312535423847214 2.312535423847214
          2.312535423847214 2.312535423847214 2.312535423847214 2.312535423847214 2.312535423847214 2.312535423847214
          2.0250680543053194 0.8799967542199789 0.8800163826404519 0.8828452017667755 0.8883577109819967 0.8981803908780934
          0.9157734918053291 0.9616166213497696 1.0680997683848426 1.2692685373877293 1.4532696433744847 1.5898291458440106
          1.6994639471003532 1.7639838849114977 1.8219538456606688 2.0118885983104917 2.312535423847214 2.312535423847214
          2.312535423847214 2.312535423847214 2.312535423847214 2.312535423847214 2.312535423847214 2.312535423847214
          2.312535423847214 2.312535423847214 2.312535423847214 2.312535423847214 2.312535423847214 2.312535423847214
          2.312535423847214 2.312535423847214 0.8834350345009091 0.8854769803701402 0.8918125473002961 0.8992174272999666
          0.9077743665048765 0.9256862973652631 0.9780127410581272 1.1064869904603152 1.3074417433228025 1.448995804520353
          1.8249356733012487 2.0401058912116756 2.104791724695087 2.145449046065695 2.3108993898414387 2.312535423847214
          2.312535423847214 2.312535423847214 2.312535423847214 2.312535423847214 2.312535423847214 2.312535423847214
          2.312535423847214 2.312535423847214 2.312535423847214 2.312535423847214 2.312535423847214 2.312535423847214
          2.312535423847214 2.312535423847214 2.312535423847214 0.8997497586613948 0.8952359149189322 0.9110708631117271
          0.9208540276342548 0.9223343532767191 0.9420065477094616 1.0034119346808537 1.134606620434122 1.29816936240826
          1.831076780644518 2.312535423847214 2.312535423847214 2.312535423847214 2.312535423847214 2.312535423847214
          2.312535423847214 2.312535423847214 2.312535423847214 2.312535423847214 2.312535423847214 2.312535423847214
          2.312535423847214 2.312535423847214 2.312535423847214 2.312535423847214 2.312535423847214 2.312535423847214
          2.312535423847214 2.312535423847214 2.312535423847214 2.312535423847214 0.9826908095495891 0.9120391891608447
          0.9422685816341233 0.9532641624388724 0.9444527936935929 0.9660359485492155 1.0408178183372705 1.1826783142399062
          1.3046595439089943 2.312535423847214 2.312535423847214 2.312535423847214 2.312535423847214 2.312535423847214
          2.312535423847214 2.312535423847214 2.312535423847214 2.312535423847214 2.312535423847214 2.312535423847214
          2.312535423847214 2.312535423847214 2.312535423847214 2.312535423847214 2.312535423847214 2.312535423847214
          2.312535423847214 2.312535423847214 2.312535423847214 2.312535423847214 2.312535423847214 2.312535423847214
          0.9919903807016835 0.9710811522823033 0.976126362314233 0.9720913578312542 0.9972753756412112 1.1004188877743133
          1.2533337016359103 1.2978167476615947 2.312535423847214 2.312535423847214 2.312535423847214 2.312535423847214
          2.312535423847214 2.312535423847214 2.312535423847214 2.312535423847214 2.312535423847214 2.312535423847214
          2.312535423847214 2.312535423847214 2.312535423847214 2.312535423847214 2.312535423847214 2.312535423847214
          2.312535423847214 2.312535423847214 2.312535423847214 2.312535423847214 2.312535423847214 2.312535423847214
          2.312535423847214 1.7953331106685324 1.1528438859077033 1.0658876318863375 1.0051128577274342 1.0558385036325761
          1.2176086467211584 1.2677419943005717 1.673351707678845 2.312535423847214 2.312535423847214 2.312535423847214
          2.312535423847214 2.312535423847214 2.312535423847214 2.312535423847214 2.312535423847214 2.312535423847214
          2.312535423847214 2.312535423847214 2.312535423847214 2.312535423847214 2.312535423847214 2.312535423847214
          2.312535423847214 2.312535423847214 2.312535423847214 2.312535423847214 2.312535423847214 2.312535423847214
          2.312535423847214 2.312535423847214 2.312535423847214 1.4757887901885907 1.1563544370817236 1.057163420031258
          1.1858711160146314 1.2047974901190504 1.463410345903657 2.312535423847214 2.312535423847214 2.312535423847214
          2.312535423847214 2.312535423847214 2.312535423847214 2.312535423847214 2.312535423847214 2.312535423847214
          2.312535423847214 2.312535423847214 2.312535423847214 2.312535423847214 2.312535423847214 2.312535423847214
          2.312535423847214 2.312535423847214 2.312535423847214 2.312535423847214 2.312535423847214 2.312535423847214
          2.312535423847214 2.312535423847214 2.312535423847214 2.312535423847214 1.954564096581931 1.1639409014439905
          1.127994992189181 1.1804386817751118 1.9983595659250555 2.312535423847214 2.312535423847214 2.312535423847214
          2.312535423847214 2.312535423847214 2.312535423847214 2.312535423847214 2.312535423847214 2.312535423847214
          2.312535423847214 2.312535423847214 2.312535423847214 2.312535423847214 2.312535423847214 2.312535423847214
          2.312535423847214 2.312535423847214 2.312535423847214 2.312535423847214 2.312535423847214 2.312535423847214
          2.312535423847214 2.312535423847214 2.312535423847214 2.312535423847214 2.312535423847214 2.312535423847214
          1.4257728005199455 1.395717903504892 2.223958412056247 2.312535423847214 2.312535423847214 2.312535423847214
          2.312535423847214 2.312535423847214 2.312535423847214 2.312535423847214 2.312535423847214 2.312535423847214
          2.312535423847214 2.312535423847214 2.312535423847214 2.312535423847214 2.312535423847214 2.312535423847214
          2.312535423847214 2.312535423847214 2.312535423847214 2.312535423847214 2.312535423847214 2.312535423847214
          2.312535423847214 2.312535423847214 2.312535423847214 2.312535423847214 2.312535423847214 2.312535423847214
          2.312535423847214 2.312535423847214 2.312535423847214 2.312535423847214 2.312535423847214 2.312535423847214
          2.312535423847214 2.312535423847214 2.312535423847214 2.312535423847214 2.312535423847214 2.312535423847214
          2.312535423847214 2.312535423847214 2.312535423847214 2.312535423847214 2.312535423847214 2.312535423847214
          2.312535423847214 2.312535423847214 2.312535423847214 2.312535423847214 2.312535423847214 2.312535423847214
          2.312535423847214 2.312535423847214 2.312535423847214 2.312535423847214 2.312535423847214 2.312535423847214
          2.312535423847214 2.312535423847214 2.312535423847214 2.312535423847214 2.312535423847214 2.312535423847214
          2.312535423847214 2.312535423847214 2.312535423847214 2.312535423847214 2.312535423847214 2.312535423847214
          2.312535423847214 2.312535423847214 2.312535423847214 2.312535423847214 2.312535423847214 2.312535423847214
          2.312535423847214 
        </DataArray>
      </PointData>
      <CellData>
        <DataArray type="Float32" Name="averaged zvalue" NumberOfComponents="1" format="ascii" RangeMin="0.7389811683084557" RangeMax="2.312535423847214">
          2.312535423847214 2.312535423847214 2.312535423847214 2.312535423847214 2.312535423847214 2.312535423847214
          2.312535423847214 2.312535423847214 2.312535423847214 2.312535423847214 2.312535423847214 2.312535423847214
          2.312535423847214 2.312535423847214 2.312535423847214 2.312535423847214 2.312535423847214 2.312535423847214
          2.312535423847214 2.312535423847214 2.312535423847214 2.312535423847214 2.312535423847214 2.312535423847214
          2.312535423847214 2.312535423847214 2.312535423847214 2.312535423847214 2.312535423847214 2.312535423847214
          2.312535423847214 2.312535423847214 2.312535423847214 2.312535423847214 2.312535423847214 2.312535423847214
          2.312535423847214 2.312535423847214 2.312535423847214 2.312535423847214 2.312535423847214 2.312535423847214
          2.312535423847214 2.312535423847214 2.312535423847214 2.312535423847214 2.312535423847214 2.312535423847214
          2.312535423847214 2.312535423847214 2.312535423847214 2.312535423847214 2.312535423847214 2.312535423847214
          2.312535423847214 2.312535423847214 2.312535423847214 2.312535423847214 2.312535423847214 2.312535423847214
          2.312535423847214 2.312535423847214 2.312535423847214 2.312535423847214 2.312535423847214 2.312535423847214
          2.312535423847214 2.312535423847214 2.312535423847214 2.312535423847214 2.312535423847214 2.312535423847214
          2.312535423847214 2.312535423847214 2.312535423847214 2.312535423847214 2.312535423847214 2.312535423847214
          2.312535423847214 2.312535423847214 2.312535423847214 2.312535423847214 2.312535423847214 2.312535423847214
          2.312535423847214 2.312535423847214 2.312535423847214 2.312535423847214 2.312535423847214 2.312535423847214
          2.312535423847214 2.312535423847214 2.312535423847214 2.312535423847214 2.312535423847214 2.312535423847214
          2.312535423847214 2.312535423847214 2.312535423847214 2.312535423847214 2.312535423847214 2.312535423847214
          2.312535423847214 2.312535423847214 2.312535423847214 2.312535423847214 2.312535423847214 2.312535423847214
          2.2952006474088003 2.2611003460512666 2.2379114692007875 2.2410830323051867 2.261750340128219 2.28112293019462
          2.281328179728023 2.2700310516033055 2.2800923876616084 2.302945663973059 2.312535423847214 2.312535423847214
          2.312535423847214 2.312535423847214 2.312535423847214 2.312535423847214 2.312535423847214 2.312535423847214
          2.312535423847214 2.312535423847214 2.312535423847214 2.312535423847214 2.312535423847214 2.312535423847214
          2.312535423847214 2.312535423847214 2.312535423847214 2.2622935058434672 2.11707470572769 2.025470732175315
          2.0462243134231284 2.0605225507009766 2.0551249693955347 2.060294149328267 2.0840105150418813 2.116740710170416
          2.1377133979911944 2.154625352740007 2.200448929254619 2.260031597702856 2.299381767827257 2.312535423847214
          2.312535423847214 2.312535423847214 2.312535423847214 2.312535423847214 2.312535423847214 2.312535423847214
          2.312535423847214 2.312535423847214 2.312535423847214 2.312535423847214 2.312535423847214 2.312535423847214
          2.301071039124563 2.2150446384545495 2.0394104753773328 1.8437811482778856 1.7376195893872517 1.773089255616567
          1.865686581022885 1.9320705984125477 1.9565541273825235 1.9513662269278609 1.9453133649641488 1.9571882439206512
          1.9866019853467953 2.037814117875704 2.1065271547189925 2.1779568983669226 2.2421052143322315 2.2925784038040358
          2.312535423847214 2.312535423847214 2.312535423847214 2.312535423847214 2.312535423847214 2.312535423847214
          2.312535423847214 2.312535423847214 2.312535423847214 2.293993750731236 2.1622827429374776 1.9900689813879717
          1.8787795842941777 1.689318294424607 1.4633261528224362 1.3985298241986581 1.5559484810674244 1.75374184942628
          1.8401024942043693 1.8764705182150758 1.8906905387083959 1.8842628572439766 1.8745832281163497 1.8741934668126443
          1.8933521630878194 1.9411754965527823 2.008043785069483 2.0763447254663085 2.1459861678128354 2.233186693761735
          2.312535423847214 2.312535423847214 2.312535423847214 2.312535423847214 2.312535423847214 2.312535423847214
          2.312535423847214 2.312535423847214 2.285642904175196 2.0839776100021985 1.6902571149854553 1.371681810180355
          1.2214648849972074 1.123446634904554 1.1293564379581662 1.2939077689786274 1.4847231065876672 1.6020204473438726
          1.664804269213886 1.7049580096871675 1.7241920044583372 1.7336461652098554 1.7400537832058984 1.7487414449384049
          1.7766949850782083 1.829498467151736 1.897496571411503 1.96716595132845 2.0435452573970405 2.1534959595022367
          2.312535423847214 2.312535423847214 2.312535423847214 2.312535423847214 2.312535423847214 2.312535423847214
          2.312535423847214 2.312535423847214 2.1342604490561254 1.6373509022842598 1.1910884597594729 1.021967566999181
          0.9691397065048137 0.9877844217867751 1.0838052072663924 1.2163307347498544 1.332106451322564 1.412814621681274
          1.4714550784067586 1.5166493287458636 1.5454397509921924 1.56876763369905 1.5895507062002199 1.6110998917916397
          1.6510322637567092 1.7121450859928753 1.7847669573098597 1.8625392471059028 1.9555897048827275 2.090782753086013
          2.312535423847214 2.312535423847214 2.312535423847214 2.312535423847214 2.312535423847214 2.312535423847214
          2.312535423847214 2.312535423847214 1.9126357354891814 1.249324737632928 0.980736626884863 0.977116168010231
          0.9760875331180014 0.9941544592220486 1.0499110678695847 1.1195037934221395 1.1865943649801922 1.2444714560832564
          1.2949062774662745 1.3417206762468945 1.380028667764516 1.414969176286093 1.448210852628879 1.481340992576751
          1.531234299508817 1.6025160437302708 1.6855260437790982 1.7788372144844926 1.898943926000129 2.0679568633079892
          2.312535423847214 2.312535423847214 2.312535423847214 2.312535423847214 2.312535423847214 2.312535423847214
          2.3054663701356604 2.173140170991456 1.605434109173332 1.0380672380852674 0.9489309287415089 0.9884820968108701
          0.9902007039933105 0.9944066350725583 1.0121214842185222 1.0384901696126942 1.0738419029787247 1.1135340190609135
          1.1557018914577197 1.2010334437674266 1.2439432408102458 1.2872420063326742 1.3300716199688845 1.3735836701233752
          1.4324806220249764 1.51313769930447 1.6103977839611632 1.727654846027297 1.8820450696679356 2.0874479183147323
          2.312535423847214 2.312535423847214 2.312535423847214 2.312535423847214 2.312535423847214 2.312535423847214
          2.1976937127204415 1.7857679253222294 1.198661320785869 0.9056680319270526 0.9405915529424501 0.9815562543835575
          0.9827134755718364 0.9797363918059527 0.9787926627334883 0.9834343482882136 0.999320340224858 1.025203022417165
          1.059883578311813 1.1024068679396561 1.147680591466332 1.1959964889210148 1.246246241074436 1.299037644644799
          1.3649738440455281 1.4542105236727965 1.5690724500077138 1.7151339138105777 1.9039331260358836 2.141243682605081
          2.312535423847214 2.312535423847214 2.312535423847214 2.312535423847214 2.312535423847214 2.312535423847214
          2.088433863824259 1.440462005083704 0.8952547431326835 0.8265394617487469 0.9164829596903252 0.9588322943403264
          0.962244398436729 0.9573527060060067 0.9508334563998915 0.9480947530286022 0.9548435364872807 0.9722604507361446
          1.001337341186308 1.0423879818968549 1.0905526159358476 1.1432352958557495 1.1998466565685035 1.2595038168533066
          1.3304578861928735 1.4281018395801313 1.5616611421756725 1.7357260744135792 1.9549090055859804 2.1943609260732018
          2.312535423847214 2.312535423847214 2.312535423847214 2.312535423847214 2.312535423847214 2.312535423847214
          2.071948773575069 1.307915709987196 0.7596059123044006 0.7939577751967886 0.8893884221359779 0.9327442535093635
          0.9386661737668458 0.93387964079243 0.9268870469025818 0.9238186459127994 0.9292809097035619 0.9446274778898514
          0.9732013529364691 1.0160024285538145 1.0675525607462122 1.124183036755848 1.1850190301471624 1.2485372974851963
          1.3230713023362457 1.4290366964995216 1.5809863282812857 1.78058964347127 2.0280150558924035 2.238330262674136
          2.312535423847214 2.312535423847214 2.312535423847214 2.312535423847214 2.312535423847214 2.312535423847214
          2.043775133841157 1.2596318918608236 0.7389811683084557 0.783940910229518 0.8686108729062006 0.9103754809765743
          0.9166049770912302 0.9126499385818632 0.9079084652555587 0.9076281504189296 0.9152314913703046 0.9329599073130541
          0.9656090343441661 1.014391372522799 1.07202714615406 1.1322768565926586 1.1939906023856777 1.2582989285010697
          1.3358766723545805 1.450554724208369 1.6210845818005464 1.846960830479115 2.117795726530634 2.287826880657797
          2.312535423847214 2.312535423847214 2.312535423847214 2.312535423847214 2.312535423847214 2.3051517068621044
          2.084119103084495 1.4383216619847612 0.9047358295247723 0.814249060569219 0.8568443873881545 0.8943938079955438
          0.8993089684027568 0.8965770602352982 0.8946246006024737 0.8977005469009952 0.9090649108651219 0.9321507070722619
          0.97306617591526 1.0328422097937104 1.0996408398374706 1.1628431897262952 1.222413204900788 1.2852208504357274
          1.36591419855267 1.4912630847776926 1.6843942670946273 1.9413730388104147 2.197960438995434 2.312535423847214
          2.312535423847214 2.312535423847214 2.312535423847214 2.312535423847214 2.312535423847214 2.3051517068621044
          2.228621645426143 1.9713066532054162 1.4891037033001648 1.0229083946522275 0.8655959369313402 0.884385109299804
          0.887726250279055 0.886498450714367 0.8870351755821955 0.8930401191456512 0.9090090852984923 0.9398633631061475
          0.9942096248123229 1.0719454673996605 1.153140479372985 1.2204763190384407 1.2752069566559152 1.3337473726170517