<VTKFile type="PolyData" version="1.0" byte_order="LittleEndian" header_type="UInt64">
  <PolyData>
    <Piece NumberOfPoints="961" NumberOfVerts="0" NumberOfLines="0" NumberOfStrips="0" NumberOfPolys="900">
      <PointData>
        <DataArray type="Float32" Name="zvalue" NumberOfComponents="1" format="ascii" RangeMin="0.7950067979395764" RangeMax="2.312535423847214">
          2.312535423847214 2.312535423847214 2.312535423847214 2.312535423847214 2.312535423847214 2.312535423847214
          2.312535423847214 2.312535423847214 2.312535423847214 2.312535423847214 2.312535423847214 2.312535423847214
          2.312535423847214 2.312535423847214 2.312535423847214 2.312535423847214 2.312535423847214 2.312535423847214
          2.312535423847214 2.312535423847214 2.312535423847214 2.312535423847214 2.312535423847214 2.312535423847214
          2.312535423847214 2.312535423847214 2.312535423847214 2.312535423847214 2.312535423847214 2.312535423847214
          2.312535423847214 2.312535423847214 2.312535423847214 2.312535423847214 2.312535423847214 2.312535423847214
          2.312535423847214 2.312535423847214 2.312535423847214 2.312535423847214 2.312535423847214 2.312535423847214
          2.312535423847214 2.312535423847214 2.312535423847214 2.312535423847214 2.312535423847214 2.312535423847214
          2.312535423847214 2.312535423847214 2.312535423847214 2.312535423847214 2.312535423847214 2.312535423847214
          2.312535423847214 2.312535423847214 2.312535423847214 2.312535423847214 2.312535423847214 2.312535423847214
          2.312535423847214 2.312535423847214 2.312535423847214 2.312535423847214 2.312535423847214 2.312535423847214
          2.312535423847214 2.312535423847214 2.312535423847214 2.312535423847214 2.312535423847214 2.312535423847214
          2.312535423847214 2.312535423847214 2.312535423847214 2.312535423847214 2.312535423847214 2.312535423847214
          2.312535423847214 2.312535423847214 2.312535423847214 2.312535423847214 2.312535423847214 2.312535423847214
          2.312535423847214 2.312535423847214 2.312535423847214 2.312535423847214 2.312535423847214 2.312535423847214
          2.312535423847214 2.312535423847214 2.312535423847214 2.312535423847214 2.312535423847214 2.312535423847214
          2.312535423847214 2.312535423847214 2.312535423847214 2.312535423847214 2.312535423847214 2.312535423847214
          2.312535423847214 2.312535423847214 2.312535423847214 2.312535423847214 2.312535423847214 2.312535423847214
          2.312535423847214 2.312535423847214 2.312535423847214 2.312535423847214 2.312535423847214 2.312535423847214
          2.312535423847214 2.312535423847214 2.312535423847214 2.312535423847214 2.312535423847214 2.312535423847214
          2.312535423847214 2.312535423847214 2.312535423847214 2.312535423847214 2.312535423847214 2.312535423847214
          2.312535423847214 2.312535423847214 2.312535423847214 2.312535423847214 2.312535423847214 2.312535423847214
          2.312535423847214 2.312535423847214 2.312535423847214 2.312535423847214 2.312535423847214 2.312535423847214
          2.312535423847214 2.312535423847214 2.312535423847214 2.312535423847214 2.312535423847214 2.312535423847214
          2.312535423847214 2.312535423847214 2.312535423847214 2.312535423847214 2.312535423847214 2.312535423847214
          2.312535423847214 2.312535423847214 2.312535423847214 2.312535423847214 2.312535423847214 2.312535423847214
          2.312535423847214 2.312535423847214 2.312535423847214 2.312535423847214 2.312535423847214 2.312535423847214
          2.312535423847214 2.312535423847214 2.312535423847214 2.312535423847214 2.312535423847214 2.312535423847214
          2.312535423847214 2.312535423847214 2.312535423847214 2.312535423847214 2.312535423847214 2.312535423847214
          2.312535423847214 2.312535423847214 2.312535423847214 2.312535423847214 2.312535423847214 2.312535423847214
          2.312535423847214 2.312535423847214 2.312535423847214 2.312535423847214 2.312535423847214 2.312535423847214
          2.312535423847214 2.312535423847214 2.312535423847214 2.312535423847214 2.312535423847214 2.312535423847214
          2.312535423847214 2.312535423847214 2.312535423847214 2.312535423847214 2.312535423847214 2.312535423847214
          2.312535423847214 2.312535423847214 2.312535423847214 2.312535423847214 2.312535423847214 2.312535423847214
          2.312535423847214 2.312535423847214 2.312535423847214 2.312535423847214 2.312535423847214 2.312535423847214
          2.312535423847214 2.312535423847214 2.312535423847214 2.312535423847214 2.312535423847214 2.312535423847214
          2.312535423847214 2.312535423847214 2.312535423847214 2.312535423847214 2.312535423847214 2.312535423847214
          2.312535423847214 2.312535423847214 2.312535423847214 2.312535423847214 2.312535423847214 2.312535423847214
          2.312535423847214 2.312535423847214 2.312535423847214 2.312535423847214 2.312535423847214 2.312535423847214
          2.312535423847214 2.312535423847214 2.312535423847214 2.312535423847214 2.312535423847214 2.312535423847214
          2.312535423847214 2.312535423847214 2.312535423847214 2.312535423847214 2.312535423847214 2.312535423847214
          2.312535423847214 2.296400606964603 2.312535423847214 2.312535423847214 2.312535423847214 2.312535423847214
          2.312535423847214 2.312535423847214 2.312535423847214 2.312535423847214 2.312535423847214 2.312535423847214
          2.312535423847214 2.312535423847214 2.312535423847214 2.312535423847214 2.312535423847214 2.312535423847214
          2.312535423847214 2.312535423847214 2.312535423847214 2.312535423847214 2.312535423847214 2.312535423847214
          2.312535423847214 2.2564982917154555 2.130865118789445 2.0046360802403216 1.913885714959459 1.833662131691505
          1.7692888315332984 1.7075831507475123 1.6105058231545493 2.312535423847214 2.312535423847214 2.312535423847214
          2.312535423847214 2.312535423847214 2.312535423847214 2.312535423847214 2.312535423847214 2.312535423847214
          2.312535423847214 2.312535423847214 2.312535423847214 2.312535423847214 2.312535423847214 2.312535423847214
          2.204188164791538 2.057631727185771 1.923339228815176 1.804407722994031 1.687524055794147 1.5766133153299366
          1.4988440741581783 1.4342147705710477 1.3625008898431914 1.3008865077159568 1.2487822142609204 1.2208567887657236
          1.1950975943641124 1.1821379244255559 1.1685868139479823 1.1448438740772757 2.312535423847214 2.312535423847214
          2.312535423847214 2.312535423847214 2.312535423847214 2.312535423847214 2.312535423847214 2.312535423847214
          2.312535423847214 2.312535423847214 2.312535423847214 2.2659746280260467 2.054681467631252 1.835570143582781
          1.6223201505428708 1.4307652652769323 1.2659162463810663 1.1350414092507284 1.036473561772065 0.9703447592161598
          0.9385223128806766 0.9338893773450428 0.9330576444236974 0.9304793818967699 0.9264903575446809 0.925145560921247
          0.9316358817259959 0.9413356359777552 0.9530263961785098 0.965423896497687 0.9793756498736685 2.312535423847214
          2.312535423847214 2.312535423847214 2.312535423847214 2.312535423847214 2.312535423847214 2.312535423847214
          2.08056561289156 1.979569632573633 1.9125282692873262 1.7945908807839244 1.606630639852625 1.4030159776738258
          1.2062291957011304 1.0365371338100922 0.9137146261866189 0.8464344922084637 0.8257409933290245 0.8294735442361166
          0.8411584913697485 0.8532660985723544 0.8623040420799643 0.8689352625098168 0.8740722100282016 0.8782927394965779
          0.8835363170902673 0.8906860478715777 0.900434147788512 0.9132214065597685 0.929204021363452 0.9489826972638817
          2.312535423847214 2.312535423847214 2.312535423847214 2.312535423847214 2.312535423847214 2.312535423847214
          1.911189027762722 1.52083306767404 1.4054140707003557 1.3305686857414631 1.2263471713193372 1.0816791144644209
          0.9471471454718355 0.852014814762243 0.8078952139806214 0.8085891675181472 0.8296657844501714 0.8507068955420038
          0.8661797863644384 0.8770562568219802 0.8828652612487721 0.8848429457847299 0.8860422820567712 0.8870258762377806
          0.8884458630228961 0.8909183585365199 0.8951648782824273 0.9022242472159288 0.912406602790028 0.9261657864747663
          0.9439217244320117 2.312535423847214 2.312535423847214 2.312535423847214 2.312535423847214 2.312535423847214
          2.312535423847214 1.5142780926782862 1.1221476195009719 1.001530411461209 0.9372035485674322 0.8783071338179849
          0.8241504860019343 0.7997191651758652 0.8091865489149915 0.8364055411037705 0.8627655820048119 0.8809692518892737
          0.8912285943909772 0.8959643238680147 0.8974435104561016 0.8968114711339791 0.8954008169359066 0.8941261183852215
          0.8931037342503615 0.8928326492010756 0.8939669382351093 0.8970967924558103 0.9029412047061938 0.9121248715855789
          0.9252026612806664 0.9426143273378149 2.312535423847214 2.312535423847214 2.312535423847214 2.312535423847214
          2.312535423847214 2.312535423847214 1.3209120537155605 0.9304155808425385 0.8262021205017539 0.7950067979395764
          0.7956230624025497 0.8118570943391314 0.838526040584499 0.8657175118724914 0.8848873903736978 0.8956085759565859
          0.9003212219812883 0.9011558695603848 0.8999716721866408 0.8981996429268154 0.8961761708517529 0.894300417931572
          0.8925441919939455 0.8912578329688899 0.8910147801415342 0.8922794408805885 0.8956807739341863 0.9018418865427035
          0.9114369651581552 0.9249366816896414 0.9427921529319329 2.312535423847214 2.312535423847214 2.312535423847214
          2.312535423847214 2.312535423847214 2.312535423847214 1.557714140176038 0.9369626597911527 0.8036561066282968
          0.8019851181607659 0.8353550669629041 0.8637877757336775 0.883092204398182 0.8941119701026814 0.8989050856884698
          0.8998011947318827 0.8987116989698218 0.8968060645458078 0.8945453309989496 0.8924114767047663 0.8906026868409552
          0.889180302478769 0.888162104991474 0.8877234688094354 0.8883460614288142 0.8904319422491428 0.894582285681855
          0.9013845496291945 0.9115841252143942 0.9257008963837342 0.9440511845311004 2.312535423847214 2.312535423847214
          2.312535423847214 2.312535423847214 2.312535423847214 2.312535423847214 2.312535423847214 1.4355545947558752
          0.937174986261918 0.8420469336817784 0.8725752758040266 0.8892889403037079 0.8949637756143901 0.8960588311086979
          0.8949350852477175 0.8929706621261776 0.8910226279643427 0.8892871544447253 0.8876577513104253 0.8862662723266552
          0.8852402332468197 0.8846383066469465 0.8844919853691809 0.8849331613811915 0.8863502479620117 0.8892420999548539
          0.8941993649067244 0.9017765643077401 0.9127427858045468 0.9276238644589387 0.9466735445310631 2.312535423847214
          2.312535423847214 2.312535423847214 2.312535423847214 2.312535423847214 2.312535423847214 2.312535423847214
          2.312535423847214 1.620252461737991 0.9834730072944351 0.8851064617211254 0.8916337980563157 0.8910288795120707
          0.889181475515006 0.8873671303798014 0.8858318791169025 0.8845497975163303 0.8834887492431438 0.8825180278458716
          0.88178952692322 0.8814266189699521 0.8814787021942049 0.8820522324741141 0.8832356233065236 0.8853833468005249
          0.8891392237068654 0.895014423469867 0.9035038097138188 0.9154406821160946 0.9311607777820818 0.9510681577793019
          2.312535423847214 2.312535423847214 2.312535423847214 2.312535423847214 2.312535423847214 2.312535423847214
          2.312535423847214 2.312535423847214 2.312535423847214 1.890330883980534 0.9093213694374654 0.8860900763118181
          0.8845813186372004 0.8831316982112067 0.8818991689524746 0.8809652168883888 0.8802753316567197 0.879750289526199
          0.8793275215724238 0.8791482538604365 0.8793287182567846 0.8799338861882707 0.8811388466236635 0.8829607080032392
          0.8858982895877112 0.8905035213073204 0.8972708311662366 0.9067585497998095 0.9197157978961101 0.9363870176691199
          0.9577391923794709 2.312535423847214 2.312535423847214 2.312535423847214 2.312535423847214 2.312535423847214
          2.312535423847214 2.312535423847214 2.312535423847214 2.312535423847214 2.312535423847214 1.3321558966801412
          0.8813498410129936 0.880350723056367 0.8795030276343904 0.8788495064534625 0.8784353944961865 0.8782270673923631
          0.8781359603519107 0.878164350031942 0.8784592101346135 0.8790824722599833 0.8801726228554951 0.8818712739334702
          0.8843160186993239 0.8880688344234583 0.8935142115936664 0.9011095955783704 0.911597204733243 0.9255378304148452
          0.9436229769699069 0.9669862314604609 2.312535423847214 2.312535423847214 2.312535423847214 2.312535423847214
          2.312535423847214 2.312535423847214 2.312535423847214 2.312535423847214 2.312535423847214 2.312535423847214
          2.312535423847214 0.8885098549322435 0.878579656768727 0.8782934367267914 0.8781684570622315 0.8782008805935706
          0.8783651721279648 0.8786305024125087 0.879029258837032 0.8797085922027543 0.8807002002690707 0.8821979169810626
          0.8843193586622531 0.8873821521902061 0.8919072952655493 0.898149304066307 0.9065695901238104 0.9179662187886104
          0.9331567069509766 0.9532841369636935 0.9789611886554392 2.312535423847214 2.312535423847214 2.312535423847214
          2.312535423847214 2.312535423847214 2.312535423847214 2.312535423847214 2.312535423847214 2.312535423847214
          2.312535423847214 2.312535423847214 1.2030868895583695 0.8791397906452568 0.8793544271496656 0.8796982643457422
          0.8801063129457709 0.8805773212776526 0.8811250551866734 0.8818153198302543 0.8827816414171762 0.8840649108710766
          0.8858910024815051 0.8884664338103834 0.8921356483235539 0.8973649660583217 0.9043262256751047 0.913586398986185
          0.9260271357962717 0.942942452615598 0.9654688859222613 0.9949722621480308 2.312535423847214 2.312535423847214
          2.312535423847214 2.312535423847214 2.312535423847214 2.312535423847214 2.312535423847214 2.312535423847214
          2.312535423847214 2.312535423847214 2.312535423847214 2.312535423847214 0.881858145964715 0.8825106870247837
          0.8832636769597958 0.8839831701097163 0.8846898376561725 0.8854489375959488 0.8863640986488031 0.8875481112057854
          0.8890993446029445 0.8912355954996849 0.8942393475126629 0.8985430206027345 0.9043950436640416 0.9120469078826341
          0.9224000502676871 0.936338695337748 0.9555485020706835 0.9821344108827035 1.01845724931397 2.312535423847214
          2.312535423847214 2.312535423847214 2.312535423847214 2.312535423847214 2.312535423847214 2.312535423847214
          2.312535423847214 2.312535423847214 2.312535423847214 2.312535423847214 2.312535423847214 0.8865560332708083
          0.8875667246642053 0.8886621669535788 0.8896208613957357 0.8905459282868413 0.8914519038371357 0.8925556178965952
          0.8939564627798419 0.8957725778184495 0.8982542100071234 0.9017157812475254 0.9065002092714761 0.9130128950814212
          0.9216482967502037 0.9335607968802478 0.9498370703429552 0.9730378673454781 1.0070762480880386 1.0588840160337247
          2.312535423847214 2.312535423847214 2.312535423847214 2.312535423847214 2.312535423847214 2.312535423847214
          2.312535423847214 2.312535423847214 2.312535423847214 2.312535423847214 2.312535423847214 2.312535423847214
          1.7366687985371216 0.8943792426961344 0.8957306347378902 0.8969146403625688 0.898019163125869 0.8990681155113884
          0.9003389016707788 0.90198127966205 0.9040883334714941 0.9069479370695689 0.910930695335514 0.9161955480535474
          0.9233909877539822 0.9336749616194011 0.9480887089551766 0.9685978402959147 1.0000805734722287 1.0564509272167704
          1.156227042162963 2.312535423847214 2.312535423847214 2.312535423847214 2.312535423847214 2.312535423847214
          2.312535423847214 2.312535423847214 2.312535423847214 2.312535423847214 2.312535423847214 2.312535423847214
          2.312535423847214 2.312535423847214 0.9028713472511991 0.9043979068018776 0.9057831480426836 0.9070603044869842
          0.908265028836566 0.9096999849150931 0.9115725094782937 0.9140387778093134 0.9173599031487858 0.9218519686174526
          0.9278103748139472 0.9365073256522641 0.9494141776965814 0.9682962680940665 0.9989604496125735 1.0607630633570737
          1.1895915251762605 1.4489405403269795 2.312535423847214 2.312535423847214 2.312535423847214 2.312535423847214
          2.312535423847214 2.312535423847214 2.312535423847214 2.312535423847214 2.312535423847214 2.312535423847214
          2.312535423847214 2.312535423847214 2.312535423847214 0.912911981614625 0.9145432812887064 0.9161663947683969
          0.9176413758928065 0.9190870130303186 0.9207174133294702 0.9228813331670978 0.9256926982554183 0.9294717706687551
          0.9345932596149926 0.9419007692881392 0.9536306242766185 0.9720410595143879 1.0058151446662924 1.0798185861121896
          1.2569204086688537 1.7523899391650912 2.312535423847214 2.312535423847214 2.312535423847214 2.312535423847214
          2.312535423847214 2.312535423847214 2.312535423847214 2.312535423847214 2.312535423847214 2.312535423847214
          2.312535423847214 2.312535423847214 2.312535423847214 2.312535423847214 0.9376413562362916 0.9305435639777367
          0.9288455884331658 0.9299184428849612 0.9314178059960658 0.9332570172916613 0.9357502610493645 0.938907844817404
          0.9432276167286013 0.949798601086595 0.9603325911632528 0.9801583630850546 1.0277092473830314 1.1414208435820918
          1.510531945818234 2.312535423847214 2.312535423847214 2.312535423847214 2.312535423847214 2.312535423847214
          2.312535423847214 2.312535423847214 2.312535423847214 2.312535423847214 2.312535423847214 2.312535423847214
          2.312535423847214 2.312535423847214 2.312535423847214 2.312535423847214 2.312535423847214 2.312535423847214
          1.087233805616091 1.0146932854202981 0.9726217636397647 0.9549888725149533 0.9510067989812374 0.9513347637273889
          0.954254539025021 0.959621984945313 0.9699600214699721 0.9938740085581992 1.0872803694222402 1.5153686716359258
          2.312535423847214 2.312535423847214 2.312535423847214 2.312535423847214 2.312535423847214 2.312535423847214
          2.312535423847214 2.312535423847214 2.312535423847214 2.312535423847214 2.312535423847214 2.312535423847214
          2.312535423847214 2.312535423847214 2.312535423847214 2.312535423847214 2.312535423847214 2.312535423847214
          2.312535423847214 1.917081445188428 1.6089892943640054 1.3403232290575715 1.1471786021787636 1.0393376256339142
          0.99732181085804 0.9840181203987056 0.9859560940057962 1.0167503581253814 1.3754072770981352 2.312535423847214
          2.312535423847214 2.312535423847214 2.312535423847214 2.312535423847214 2.312535423847214 2.312535423847214
          2.312535423847214 2.312535423847214 2.312535423847214 2.312535423847214 2.312535423847214 2.312535423847214
          2.312535423847214 2.312535423847214 2.312535423847214 2.312535423847214 2.312535423847214 2.312535423847214
          2.312535423847214 2.312535423847214 2.312535423847214 2.312535423847214 2.312535423847214 2.0425091294836055
          1.6105689857862353 1.3252638469000426 1.1692990307355215 1.1570290238578604 2.312535423847214 2.312535423847214
          2.312535423847214 2.312535423847214 2.312535423847214 2.312535423847214 2.312535423847214 2.312535423847214
          2.312535423847214 
        </DataArray>
      </PointData>
      <CellData>
        <DataArray type="Float32" Name="averaged zvalue" NumberOfComponents="1" format="ascii" RangeMin="0.8067125358075982" RangeMax="2.312535423847214">
          2.312535423847214 2.312535423847214 2.312535423847214 2.312535423847214 2.312535423847214 2.312535423847214
          2.312535423847214 2.312535423847214 2.312535423847214 2.312535423847214 2.312535423847214 2.312535423847214
          2.312535423847214 2.312535423847214 2.312535423847214 2.312535423847214 2.312535423847214 2.312535423847214
          2.312535423847214 2.312535423847214 2.312535423847214 2.312535423847214 2.312535423847214 2.312535423847214
          2.312535423847214 2.312535423847214 2.312535423847214 2.312535423847214 2.312535423847214 2.312535423847214
          2.312535423847214 2.312535423847214 2.312535423847214 2.312535423847214 2.312535423847214 2.312535423847214
          2.312535423847214 2.312535423847214 2.312535423847214 2.312535423847214 2.312535423847214 2.312535423847214
          2.312535423847214 2.312535423847214 2.312535423847214 2.312535423847214 2.312535423847214 2.312535423847214
          2.312535423847214 2.312535423847214 2.312535423847214 2.312535423847214 2.312535423847214 2.312535423847214
          2.312535423847214 2.312535423847214 2.312535423847214 2.312535423847214 2.312535423847214 2.312535423847214
          2.312535423847214 2.312535423847214 2.312535423847214 2.312535423847214 2.312535423847214 2.312535423847214
          2.312535423847214 2.312535423847214 2.312535423847214 2.312535423847214 2.312535423847214 2.312535423847214
          2.312535423847214 2.312535423847214 2.312535423847214 2.312535423847214 2.312535423847214 2.312535423847214
          2.312535423847214 2.312535423847214 2.312535423847214 2.312535423847214 2.312535423847214 2.312535423847214
          2.312535423847214 2.312535423847214 2.312535423847214 2.312535423847214 2.312535423847214 2.312535423847214
          2.312535423847214 2.312535423847214 2.312535423847214 2.312535423847214 2.312535423847214 2.312535423847214
          2.312535423847214 2.312535423847214 2.312535423847214 2.312535423847214 2.312535423847214 2.312535423847214
          2.312535423847214 2.312535423847214 2.312535423847214 2.312535423847214 2.312535423847214 2.312535423847214
          2.312535423847214 2.312535423847214 2.312535423847214 2.312535423847214 2.312535423847214 2.312535423847214
          2.312535423847214 2.312535423847214 2.312535423847214 2.312535423847214 2.312535423847214 2.312535423847214
          2.312535423847214 2.312535423847214 2.312535423847214 2.312535423847214 2.312535423847214 2.312535423847214
          2.312535423847214 2.312535423847214 2.312535423847214 2.312535423847214 2.312535423847214 2.312535423847214
          2.312535423847214 2.312535423847214 2.312535423847214 2.312535423847214 2.312535423847214 2.312535423847214
          2.312535423847214 2.312535423847214 2.312535423847214 2.312535423847214 2.312535423847214 2.312535423847214
          2.312535423847214 2.312535423847214 2.312535423847214 2.312535423847214 2.312535423847214 2.312535423847214
          2.312535423847214 2.312535423847214 2.312535423847214 2.312535423847214 2.312535423847214 2.312535423847214
          2.312535423847214 2.312535423847214 2.312535423847214 2.312535423847214 2.312535423847214 2.312535423847214
          2.312535423847214 2.312535423847214 2.312535423847214 2.312535423847214 2.312535423847214 2.312535423847214
          2.312535423847214 2.312535423847214 2.312535423847214 2.312535423847214 2.312535423847214 2.312535423847214
          2.312535423847214 2.312535423847214 2.312535423847214 2.312535423847214 2.312535423847214 2.312535423847214
          2.312535423847214 2.312535423847214 2.312535423847214 2.312535423847214 2.312535423847214 2.312535423847214
          2.312535423847214 2.312535423847214 2.312535423847214 2.312535423847214 2.312535423847214 2.312535423847214
          2.312535423847214 2.312535423847214 2.312535423847214 2.312535423847214 2.312535423847214 2.312535423847214
          2.312535423847214 2.312535423847214 2.312535423847214 2.312535423847214 2.312535423847214 2.312535423847214
          2.312535423847214 2.312535423847214 2.312535423847214 2.312535423847214 2.312535423847214 2.308501719626561
          2.312535423847214 2.312535423847214 2.312535423847214 2.312535423847214 2.312535423847214 2.312535423847214
          2.312535423847214 2.312535423847214 2.312535423847214 2.312535423847214 2.312535423847214 2.312535423847214
          2.312535423847214 2.312535423847214 2.312535423847214 2.312535423847214 2.312535423847214 2.312535423847214
          2.312535423847214 2.312535423847214 2.312535423847214 2.312535423847214 2.2985261408142743 2.253108564549832
          2.1901430116810485 2.135898160723552 2.0931546735863478 2.0570054527298076 2.0254857074938095 1.9817562511784694
          2.312535423847214 2.312535423847214 2.312535423847214 2.312535423847214 2.312535423847214 2.312535423847214
          2.312535423847214 2.312535423847214 2.312535423847214 2.312535423847214 2.312535423847214 2.312535423847214
          2.312535423847214 2.312535423847214 2.2854486090832946 2.221722684917934 2.1515104509238436 2.0882044498759087
          2.0292506566206514 1.9723020547046277 1.9251320592956356 1.8895324231059134 1.8414373439942273 1.762687702016012
          1.6712924802516609 1.5970401995566061 1.5408755574452 1.495046620503618 1.456899180163587 1.4078799154818298
          2.312535423847214 2.312535423847214 2.312535423847214 2.312535423847214 2.312535423847214 2.312535423847214
          2.312535423847214 2.312535423847214 2.312535423847214 2.312535423847214 2.300895224891922 2.2364317358379315
          2.128830614727115 2.0207402854550196 1.8924522511146387 1.7396253509088269 1.5954821529081855 1.4748154807080003
          1.3746875249441008 1.29325111080523 1.2369672699284586 1.2000014666244916 1.1650631716836766 1.1300892842501498
          1.1003261601107013 1.0816051114184717 1.0722314752083968 1.0678993877364833 1.0672937577624337 1.0645575585991534
          2.312535423847214 2.312535423847214 2.312535423847214 2.312535423847214 2.312535423847214 2.312535423847214
          2.2545429711083003 2.171301523289905 2.1292921873888466 2.0830474994414194 1.9949328931274526 1.8325756782959375
          1.6248741961472473 1.4251641559092185 1.2508342939541284 1.1142076575132702 1.0182832852923207 0.9566823771469837
          0.9193625891485225 0.9008229155097348 0.8969954577195095 0.8995465815896304 0.9016361247146214 0.9023336722415576
          0.9033662437631933 0.907750951902272 0.9160229283409602 0.9270043966261364 0.9402189301498542 0.9557465662496724
          2.312535423847214 2.312535423847214 2.312535423847214 2.312535423847214 2.312535423847214 2.212198824826091
          1.956280783043884 1.746595595959897 1.6570201645756946 1.5660087517830126 1.427311951605077 1.2596182193656769
          1.1021017834022586 0.9756690895635217 0.89168403537387 0.8496010175908503 0.8381370413824158 0.8430253048678958
          0.8534670196980709 0.8635865270032138 0.8708195869214552 0.8755311331078205 0.8790189077081425 0.8819591721963641
          0.8852983195365653 0.890076400445198 0.8971273302896114 0.9070716010885592 0.9202494542970037 0.937068557383528
          2.312535423847214 2.312535423847214 2.312535423847214 2.312535423847214 2.312535423847214 2.012634492033859
          1.5171119519040048 1.2624812923341442 1.168679179117615 1.0931066348615543 1.0026209764009193 0.913173977778514
          0.8520169185812339 0.8263755296904065 0.8289138761518378 0.8454974464656011 0.8631426315681066 0.8760199000413585
          0.8841609693776338 0.8885441249152083 0.8899801237758469 0.8901030407906573 0.8900745027325336 0.8903520306780284
          0.8915409522489003 0.8942867418774667 0.89935678066509 0.9074242315744324 0.9189749805327598 0.9344761248813148
          2.312535423847214 2.312535423847214 2.312535423847214 2.312535423847214 2.312535423847214 1.8650652485220687
          1.2219383366843393 0.9700739330766183 0.8899857196174928 0.8515351356818858 0.8274844441404001 0.8185631965253575
          0.8282873166369618 0.8490492480662377 0.8699167723597165 0.8849161579579901 0.893418734455481 0.8970801150015044
          0.8978947873593931 0.8971576988421622 0.8956722192133026 0.8940928863116614 0.8927579693996046 0.8920522491404653
          0.8925234521145768 0.8947559863764236 0.8993901644097235 0.9070862319981579 0.9184252949285104 0.9338864558100138
          2.312535423847214 2.312535423847214 2.312535423847214 2.312535423847214 2.312535423847214 1.8759242603965065
          1.1865011086313224 0.8743091169409354 0.8067125358075982 0.806992511366449 0.8266557498595657 0.8493157787638724
          0.8703619317394634 0.885905489509335 0.8948005616876591 0.8986106729098946 0.8992487137643257 0.8981197343229458
          0.896282030704293 0.8943474943310724 0.8925648945257623 0.8910467543489401 0.8899218996909363 0.8895855358371685
          0.8905180561750199 0.8932436106864432 0.8983723739469848 0.9065618816361118 0.9184146671114813 0.9343702288841023
          2.312535423847214 2.312535423847214 2.312535423847214 2.312535423847214 2.312535423847214 2.1238301029294195
          1.56069170464257 1.0283370868593107 0.8462157861831898 0.8379905986523687 0.865251764701079 0.8827831740124894
          0.8920566953059879 0.8960027430368916 0.8966530069485619 0.8956265459480562 0.8939568864811744 0.8920740753249771
          0.8902202078351991 0.8886301672797992 0.8874153823033726 0.8866181748715926 0.8863276801378204 0.8868382348953632
          0.8885925878987057 0.8921139231981441 0.8979856911313785 0.9068720062389689 0.9194129179654035 0.936012372476209
          2.312535423847214 2.312535423847214 2.312535423847214 2.312535423847214 2.312535423847214 2.312535423847214
          2.0932902165743794 1.5763793666507495 1.0957368472440308 0.8958004196253414 0.8846511189712939 0.8917288483716211
          0.8928082404375413 0.8918856305628058 0.8902761892176497 0.8885937416809382 0.8870870822921355 0.8857379207110415
          0.8845578946015431 0.8836806628666617 0.8831959652644809 0.8831653066711116 0.8836782506327525 0.8849755948625629