<VTKFile type="PolyData" version="1.0" byte_order="LittleEndian" header_type="UInt64">
  <PolyData>
    <Piece NumberOfPoints="961" NumberOfVerts="0" NumberOfLines="0" NumberOfStrips="0" NumberOfPolys="900">
      <PointData>
        <DataArray type="Float32" Name="zvalue" NumberOfComponents="1" format="ascii" RangeMin="0.20344640801738573" RangeMax="2.312535423847214">
          2.312535423847214 2.312535423847214 2.312535423847214 2.312535423847214 2.312535423847214 2.312535423847214
          2.312535423847214 2.312535423847214 2.312535423847214 2.312535423847214 2.312535423847214 2.312535423847214
          2.312535423847214 2.312535423847214 2.312535423847214 2.312535423847214 2.312535423847214 2.312535423847214
          2.312535423847214 2.312535423847214 2.312535423847214 2.312535423847214 2.312535423847214 2.312535423847214
          2.312535423847214 2.312535423847214 2.312535423847214 2.312535423847214 2.312535423847214 2.312535423847214
          2.312535423847214 2.312535423847214 2.312535423847214 2.312535423847214 2.312535423847214 2.312535423847214
          2.312535423847214 2.312535423847214 2.312535423847214 2.312535423847214 2.312535423847214 2.312535423847214
          2.312535423847214 2.312535423847214 2.312535423847214 2.312535423847214 2.312535423847214 2.312535423847214
          2.312535423847214 2.312535423847214 2.312535423847214 2.312535423847214 2.312535423847214 2.312535423847214
          2.312535423847214 2.312535423847214 2.312535423847214 2.312535423847214 2.312535423847214 2.312535423847214
          2.312535423847214 2.312535423847214 2.312535423847214 2.312535423847214 2.312535423847214 2.312535423847214
          2.312535423847214 2.312535423847214 2.312535423847214 2.312535423847214 2.312535423847214 2.312535423847214
          2.312535423847214 2.312535423847214 2.312535423847214 2.312535423847214 2.312535423847214 2.312535423847214
          2.312535423847214 2.312535423847214 2.312535423847214 2.312535423847214 2.312535423847214 2.312535423847214
          2.312535423847214 2.312535423847214 2.312535423847214 2.312535423847214 2.312535423847214 2.312535423847214
          2.312535423847214 2.312535423847214 2.312535423847214 2.312535423847214 2.2292554332471575 2.1161388724821997
          2.031752122586285 2.0182676700192466 2.1178221048392496 2.3121334667558924 2.312535423847214 2.312535423847214
          2.312535423847214 2.312535423847214 2.312535423847214 2.312535423847214 2.312535423847214 2.312535423847214
          2.312535423847214 2.312535423847214 2.312535423847214 2.312535423847214 2.312535423847214 2.312535423847214
          2.312535423847214 2.312535423847214 2.312535423847214 2.312535423847214 2.312535423847214 2.312535423847214
          2.312535423847214 2.312535423847214 2.312535423847214 2.312535423847214 1.9090512270911228 1.8129501218893642
          1.725512205899978 1.6577761970904188 1.6293052438035116 1.6521922872882664 1.7358806984483983 1.8794038015547823
          2.0789470895291644 2.311740193414148 2.312535423847214 2.312535423847214 2.312535423847214 2.312535423847214
          2.312535423847214 2.312535423847214 2.312535423847214 2.312535423847214 2.312535423847214 2.312535423847214
          2.312535423847214 2.312535423847214 2.312535423847214 2.312535423847214 2.312535423847214 2.312535423847214
          2.312535423847214 2.312535423847214 2.312535423847214 2.312535423847214 2.312535423847214 1.5087217334415015
          1.4204494290381473 1.367042791962366 1.3466936322959842 1.3545605383404604 1.3854330659723968 1.4322834308860974
          1.4951341263825717 1.587914512592707 1.7178104008044799 1.8689687187454809 2.0201076409456338 2.1568913553020046
          2.312535423847214 2.312535423847214 2.312535423847214 2.312535423847214 2.312535423847214 2.312535423847214
          2.312535423847214 2.312535423847214 2.312535423847214 2.312535423847214 2.312535423847214 2.312535423847214
          2.312535423847214 2.312535423847214 2.312535423847214 2.312535423847214 2.312535423847214 2.312535423847214
          1.1920162065986446 1.111773135146621 1.0612425316549932 1.0424613721174167 1.0492652386430126 1.0708570285329644
          1.104035964732826 1.1517224691982735 1.2230046264790535 1.3236806502659815 1.4552840289553683 1.614759438717652
          1.7571846219395002 1.8535046699256228 1.9750700985511527 2.312535423847214 2.312535423847214 2.312535423847214
          2.312535423847214 2.312535423847214 2.312535423847214 2.312535423847214 2.312535423847214 2.312535423847214
          2.312535423847214 2.312535423847214 2.312535423847214 2.312535423847214 2.312535423847214 2.312535423847214
          2.312535423847214 1.0403588695802655 0.9898742491382783 0.9496311901770069 0.9218552720281183 0.9059294421459007
          0.8973195611933193 0.8951561744163052 0.9025342368674101 0.9265466751000593 0.9789324359459801 1.0736908013511068
          1.2232832481193154 1.418938238942399 1.5748477006086283 1.637130020806258 1.6806193424585874 2.312535423847214
          2.312535423847214 2.312535423847214 2.312535423847214 2.312535423847214 2.312535423847214 2.312535423847214
          2.312535423847214 2.312535423847214 2.312535423847214 2.312535423847214 2.312535423847214 2.312535423847214
          2.312535423847214 2.312535423847214 0.9572584980934187 0.9295242564699098 0.9054829085923317 0.8862263854115842
          0.8706653535702639 0.85586056375894 0.8405649561151011 0.8253528095108343 0.8118845396727722 0.8048958878436986
          0.819413608035872 0.8846279084634495 1.0305450874397653 1.2285616905881636 1.3462101857136286 1.2844677016516495
          1.7723143718977483 2.312535423847214 2.312535423847214 2.312535423847214 2.312535423847214 2.312535423847214
          2.312535423847214 2.312535423847214 2.312535423847214 2.312535423847214 2.312535423847214 2.312535423847214
          2.312535423847214 2.312535423847214 2.312535423847214 0.9135576104972901 0.9016013963480766 0.8910747993656972
          0.8812683083155388 0.8714937662256189 0.8611818021712521 0.8500130751303727 0.8355684941322372 0.815268839166427
          0.7881799076426216 0.7563926964959348 0.7335085705135633 0.761659335477498 0.8944902394279516 1.0338314968387932
          1.021876884030939 1.1510601186099612 2.312535423847214 2.312535423847214 2.312535423847214 2.312535423847214
          2.312535423847214 2.312535423847214 2.312535423847214 2.312535423847214 2.312535423847214 2.312535423847214
          2.312535423847214 2.312535423847214 2.312535423847214 2.312535423847214 0.8960820778151716 0.8919615993709145
          0.8884636307532697 0.8851759714708586 0.8814538650189296 0.8771381545953731 0.8710515113877102 0.8607660692081298
          0.8441691962806221 0.8174073962668457 0.7758123061099399 0.7168499419486037 0.6630528585838243 0.6965626449643488
          0.8085924154810304 0.819977304921332 0.8593950258240876 1.8783861384105116 2.312535423847214 2.312535423847214
          2.312535423847214 2.312535423847214 2.312535423847214 2.312535423847214 2.312535423847214 2.312535423847214
          2.312535423847214 2.312535423847214 2.312535423847214 2.312535423847214 2.312535423847214 0.8910849349691544
          0.8898978430863107 0.8894122651826857 0.889744006049971 0.8900728956824264 0.8895411401618185 0.8869273267629666
          0.8804928006030769 0.8675013028576511 0.8435446384797646 0.8008000663470267 0.7290466367390024 0.6336607621007473
          0.5973131771272956 0.6675390667025952 0.6885610806958183 0.7443691997338714 1.499403983539173 2.312535423847214
          2.312535423847214 2.312535423847214 2.312535423847214 2.312535423847214 2.312535423847214 2.312535423847214
          2.312535423847214 2.312535423847214 2.312535423847214 2.312535423847214 2.312535423847214 2.312535423847214
          0.8903198490730972 0.8911676596601963 0.8925434669719228 0.8949135300267652 0.8974862687951095 0.8990643646289623
          0.898522547644139 0.8944082338040865 0.883925103125752 0.8617952338631523 0.8186944873395984 0.7394666469703365
          0.6191286968624098 0.5316810279609727 0.5571791011169698 0.5791941932850582 0.6761470331551364 1.307314843365207
          2.312535423847214 2.312535423847214 2.312535423847214 2.312535423847214 2.312535423847214 2.312535423847214
          2.312535423847214 2.312535423847214 2.312535423847214 2.312535423847214 2.312535423847214 2.312535423847214
          2.312535423847214 0.8917030920416206 0.8932504754408517 0.8954430921563424 0.8986548948659616 0.9019101432014107
          0.9046231568763062 0.9056373878884926 0.9030754217827465 0.8941818585395122 0.8735269889034543 0.8306111160123072
          0.7469770062449649 0.6080265623235526 0.47274170228471724 0.4455408996055638 0.4712210626879935 0.7678935214423701
          2.2507026896653892 2.312535423847214 2.312535423847214 2.312535423847214 2.312535423847214 2.312535423847214
          2.312535423847214 2.312535423847214 2.312535423847214 2.312535423847214 2.312535423847214 2.312535423847214
          2.312535423847214 2.312535423847214 0.8971599840135722 0.897256649235334 0.8984367416466905 0.9008525337400356
          0.9039918605170292 0.9068723617539294 0.9079970512539832 0.9057131067102 0.8972058367354356 0.8770389624036705
          0.8341681175866795 0.74707897422015 0.5885211828068346 0.4003032370219622 0.3190058738589809 0.5125908486680981
          2.074866290422504 2.312535423847214 2.312535423847214 2.312535423847214 2.312535423847214 2.312535423847214
          2.312535423847214 2.312535423847214 2.312535423847214 2.312535423847214 2.312535423847214 2.312535423847214
          2.312535423847214 2.312535423847214 2.312535423847214 0.9079557728907987 0.9052732401080601 0.9040481647115881
          0.9042819297264731 0.9058344181198963 0.907369093992892 0.9075056465748019 0.9042141842735107 0.8944258662802105
          0.8730976782435569 0.8284844625698199 0.7332474257902313 0.5409659730248827 0.2945671072229968 0.22933805024639903
          0.9127928308789116 2.312535423847214 2.312535423847214 2.312535423847214 2.312535423847214 2.312535423847214
          2.312535423847214 2.312535423847214 2.312535423847214 2.312535423847214 2.312535423847214 2.312535423847214
          2.312535423847214 2.312535423847214 2.312535423847214 2.312535423847214 0.9328356564020069 0.9216153711206027
          0.9149287498048357 0.9117082753255391 0.909927370915356 0.9092666441566416 0.9074264784203735 0.9020407642535971
          0.8899344372580887 0.8663513334989433 0.81706882097551 0.7006646309131987 0.44877703167480837 0.20344640801738573
          0.8572016438361227 2.312535423847214 2.312535423847214 2.312535423847214 2.312535423847214 2.312535423847214
          2.312535423847214 2.312535423847214 2.312535423847214 2.312535423847214 2.312535423847214 2.312535423847214
          2.312535423847214 2.312535423847214 2.312535423847214 2.312535423847214 2.312535423847214 0.9971007948261913
          0.9565527850862194 0.9360288973854959 0.9254875428306013 0.9205344469555473 0.9178028298073735 0.9140960740918297
          0.9059470388421461 0.8903021310499913 0.8621073838578355 0.8073493130866014 0.6766900758143892 0.438912568289805
          0.5980642944109859 2.312535423847214 2.312535423847214 2.312535423847214 2.312535423847214 2.312535423847214
          2.312535423847214 2.312535423847214 2.312535423847214 2.312535423847214 2.312535423847214 2.312535423847214
          2.312535423847214 2.312535423847214 2.312535423847214 2.312535423847214 2.312535423847214 2.312535423847214
          1.762848903344959 1.3588626272055764 1.1727215146121281 1.134264225868276 1.091445478496496 1.0109424754634044
          0.9668032493667701 0.9562622338711232 0.96381939919352 0.9932701325558302 1.0340723177410762 1.0671469118993375
          1.248045720052609 2.2320176118804693 2.312535423847214 2.312535423847214 2.312535423847214 2.312535423847214
          2.312535423847214 2.312535423847214 2.312535423847214 2.312535423847214 2.312535423847214 2.312535423847214
          2.312535423847214 2.312535423847214 2.312535423847214 2.312535423847214 2.312535423847214 2.312535423847214
          2.312535423847214 2.312535423847214 2.312535423847214 2.312535423847214 2.312535423847214 2.312535423847214
          2.312535423847214 2.312535423847214 2.312535423847214 2.312535423847214 2.312535423847214 2.312535423847214
          2.312535423847214 2.312535423847214 2.312535423847214 2.312535423847214 2.312535423847214 2.312535423847214
          2.312535423847214 2.312535423847214 2.312535423847214 2.312535423847214 2.312535423847214 2.312535423847214
          2.312535423847214 2.312535423847214 2.312535423847214 2.312535423847214 2.312535423847214 2.312535423847214
          2.312535423847214 2.312535423847214 2.312535423847214 2.312535423847214 2.312535423847214 2.312535423847214
          2.312535423847214 2.312535423847214 2.312535423847214 2.312535423847214 2.312535423847214 2.312535423847214
          2.312535423847214 2.312535423847214 2.312535423847214 2.312535423847214 2.312535423847214 2.312535423847214
          2.312535423847214 2.312535423847214 2.312535423847214 2.312535423847214 2.312535423847214 2.312535423847214
          2.312535423847214 2.312535423847214 2.312535423847214 2.312535423847214 2.312535423847214 2.312535423847214
          2.312535423847214 2.312535423847214 2.312535423847214 2.312535423847214 2.312535423847214 2.312535423847214
          2.312535423847214 2.312535423847214 2.312535423847214 2.312535423847214 2.312535423847214 2.312535423847214
          2.312535423847214 2.312535423847214 2.312535423847214 2.312535423847214 2.312535423847214 2.312535423847214
          2.312535423847214 2.312535423847214 2.312535423847214 2.312535423847214 2.312535423847214 2.312535423847214
          2.312535423847214 2.312535423847214 2.312535423847214 2.312535423847214 2.312535423847214 2.312535423847214
          2.312535423847214 2.312535423847214 2.312535423847214 2.312535423847214 2.312535423847214 2.312535423847214
          2.312535423847214 2.312535423847214 2.312535423847214 2.312535423847214 2.312535423847214 2.312535423847214
          2.312535423847214 2.312535423847214 2.312535423847214 2.312535423847214 2.312535423847214 2.312535423847214
          2.312535423847214 2.312535423847214 2.312535423847214 2.312535423847214 2.312535423847214 2.312535423847214
          2.312535423847214 2.312535423847214 2.312535423847214 2.312535423847214 2.312535423847214 2.312535423847214
          2.312535423847214 2.312535423847214 2.312535423847214 2.312535423847214 2.312535423847214 2.312535423847214
          2.312535423847214 2.312535423847214 2.312535423847214 2.312535423847214 2.312535423847214 2.312535423847214
          2.312535423847214 2.312535423847214 2.312535423847214 2.312535423847214 2.312535423847214 2.312535423847214
          2.312535423847214 2.312535423847214 2.312535423847214 2.312535423847214 2.312535423847214 2.312535423847214
          2.312535423847214 2.312535423847214 2.312535423847214 2.312535423847214 2.312535423847214 2.312535423847214
          2.312535423847214 2.312535423847214 2.312535423847214 2.312535423847214 2.312535423847214 2.312535423847214
          2.312535423847214 2.312535423847214 2.312535423847214 2.312535423847214 2.312535423847214 2.312535423847214
          2.312535423847214 2.312535423847214 2.312535423847214 2.312535423847214 2.312535423847214 2.312535423847214
          2.312535423847214 2.312535423847214 2.312535423847214 2.312535423847214 2.312535423847214 2.312535423847214
          2.312535423847214 2.312535423847214 2.312535423847214 2.312535423847214 2.312535423847214 2.312535423847214
          2.312535423847214 2.312535423847214 2.312535423847214 2.312535423847214 2.312535423847214 2.312535423847214
          2.312535423847214 2.312535423847214 2.312535423847214 2.312535423847214 2.312535423847214 2.312535423847214
          2.312535423847214 2.312535423847214 2.312535423847214 2.312535423847214 2.312535423847214 2.312535423847214
          2.312535423847214 2.312535423847214 2.312535423847214 2.312535423847214 2.312535423847214 2.312535423847214
          2.312535423847214 2.312535423847214 2.312535423847214 2.312535423847214 2.312535423847214 2.312535423847214
          2.312535423847214 2.312535423847214 2.312535423847214 2.312535423847214 2.312535423847214 2.312535423847214
          2.312535423847214 2.312535423847214 2.312535423847214 2.312535423847214 2.312535423847214 2.312535423847214
          2.312535423847214 2.312535423847214 2.312535423847214 2.312535423847214 2.312535423847214 2.312535423847214
          2.312535423847214 2.312535423847214 2.312535423847214 2.312535423847214 2.312535423847214 2.312535423847214
          2.312535423847214 2.312535423847214 2.312535423847214 2.312535423847214 2.312535423847214 2.312535423847214
          2.312535423847214 2.312535423847214 2.312535423847214 2.312535423847214 2.312535423847214 2.312535423847214
          2.312535423847214 2.312535423847214 2.312535423847214 2.312535423847214 2.312535423847214 2.312535423847214
          2.312535423847214 2.312535423847214 2.312535423847214 2.312535423847214 2.312535423847214 2.312535423847214
          2.312535423847214 2.312535423847214 2.312535423847214 2.312535423847214 2.312535423847214 2.312535423847214
          2.312535423847214 2.312535423847214 2.312535423847214 2.312535423847214 2.312535423847214 2.312535423847214
          2.312535423847214 2.312535423847214 2.312535423847214 2.312535423847214 2.312535423847214 2.312535423847214
          2.312535423847214 2.312535423847214 2.312535423847214 2.312535423847214 2.312535423847214 2.312535423847214
          2.312535423847214 2.312535423847214 2.312535423847214 2.312535423847214 2.312535423847214 2.312535423847214
          2.312535423847214 2.312535423847214 2.312535423847214 2.312535423847214 2.312535423847214 2.312535423847214
          2.312535423847214 2.312535423847214 2.312535423847214 2.312535423847214 2.312535423847214 2.312535423847214
          2.312535423847214 2.312535423847214 2.312535423847214 2.312535423847214 2.312535423847214 2.312535423847214
          2.312535423847214 2.312535423847214 2.312535423847214 2.312535423847214 2.312535423847214 2.312535423847214
          2.312535423847214 2.312535423847214 2.312535423847214 2.312535423847214 2.312535423847214 2.312535423847214
          2.312535423847214 2.312535423847214 2.312535423847214 2.312535423847214 2.312535423847214 2.312535423847214
          2.312535423847214 2.312535423847214 2.312535423847214 2.312535423847214 2.312535423847214 2.312535423847214
          2.312535423847214 2.312535423847214 2.312535423847214 2.312535423847214 2.312535423847214 2.312535423847214
          2.312535423847214 2.312535423847214 2.312535423847214 2.312535423847214 2.312535423847214 2.312535423847214
          2.312535423847214 2.312535423847214 2.312535423847214 2.312535423847214 2.312535423847214 2.312535423847214
          2.312535423847214 2.312535423847214 2.312535423847214 2.312535423847214 2.312535423847214 2.312535423847214
          2.312535423847214 2.312535423847214 2.312535423847214 2.312535423847214 2.312535423847214 2.312535423847214
          2.312535423847214 2.312535423847214 2.312535423847214 2.312535423847214 2.312535423847214 2.312535423847214
          2.312535423847214 2.312535423847214 2.312535423847214 2.312535423847214 2.312535423847214 2.312535423847214
          nan 
        </DataArray>
      </PointData>
      <CellData>
        <DataArray type="Float32" Name="averaged zvalue" NumberOfComponents="1" format="ascii" RangeMin="0.3108035670875847" RangeMax="2.312535423847214">
          2.312535423847214 2.312535423847214 2.312535423847214 2.312535423847214 2.312535423847214 2.312535423847214
          2.312535423847214 2.312535423847214 2.312535423847214 2.312535423847214 2.312535423847214 2.312535423847214
          2.312535423847214 2.312535423847214 2.312535423847214 2.312535423847214 2.312535423847214 2.312535423847214
          2.312535423847214 2.312535423847214 2.312535423847214 2.312535423847214 2.312535423847214 2.312535423847214
          2.312535423847214 2.312535423847214 2.312535423847214 2.312535423847214 2.312535423847214 2.312535423847214
          2.312535423847214 2.312535423847214 2.312535423847214 2.312535423847214 2.312535423847214 2.312535423847214
          2.312535423847214 2.312535423847214 2.312535423847214 2.312535423847214 2.312535423847214 2.312535423847214
          2.312535423847214 2.312535423847214 2.312535423847214 2.312535423847214 2.312535423847214 2.312535423847214
          2.312535423847214 2.312535423847214 2.312535423847214 2.312535423847214 2.312535423847214 2.312535423847214
          2.312535423847214 2.312535423847214 2.312535423847214 2.312535423847214 2.312535423847214 2.312535423847214
          2.2917154261971997 2.242616288355946 2.193240460690728 2.16877266007499 2.1902901556382313 2.2637566048223925
          2.3124349345743833 2.312535423847214 2.312535423847214 2.312535423847214 2.312535423847214 2.312535423847214
          2.312535423847214 2.312535423847214 2.312535423847214 2.312535423847214 2.312535423847214 2.312535423847214
          2.312535423847214 2.312535423847214 2.312535423847214 2.312535423847214 2.312535423847214 2.312535423847214
          2.312535423847214 2.312535423847214 2.312535423847214 2.312535423847214 2.312535423847214 2.312535423847214
          2.0659480515187143 1.9709641583796749 1.8827948495147204 1.8342753083748655 1.8543968264875683 1.9545071393329518
          2.0599883476515717 2.1458554346945937 2.2539395326594347 2.312336616238947 2.312535423847214 2.312535423847214
          2.312535423847214 2.312535423847214 2.312535423847214 2.312535423847214 2.312535423847214 2.312535423847214
          2.312535423847214 2.312535423847214 2.312535423847214 2.312535423847214 2.312535423847214 2.312535423847214
          2.312535423847214 2.312535423847214 2.312535423847214 2.312535423847214 2.312535423847214 2.312535423847214
          1.6627931278650339 1.581488637197464 1.5242562068121868 1.4970839028825937 1.5053727838511586 1.5514473706487897
          1.6356755143179624 1.7603498825148063 1.924103049085125 2.052763684202831 2.1285368018463853 2.2005174609855165
          2.2736244067109115 2.312535423847214 2.312535423847214 2.312535423847214 2.312535423847214 2.312535423847214
          2.312535423847214 2.312535423847214 2.312535423847214 2.312535423847214 2.312535423847214 2.312535423847214
          2.312535423847214 2.312535423847214 2.312535423847214 2.312535423847214 2.312535423847214 2.312535423847214
          1.3082401260562286 1.240126971950532 1.2043600820076898 1.1982451953492186 1.2150289678722086 1.248152372531071
          1.2957939977999422 1.3644439336631513 1.4631025475355552 1.5914359496928276 1.7397799568410337 1.8872357642261977
          2.0200290177535853 2.1134114040428007 2.2281690925231983 2.312535423847214 2.312535423847214 2.312535423847214
          2.312535423847214 2.312535423847214 2.312535423847214 2.312535423847214 2.312535423847214 2.312535423847214
          2.312535423847214 2.312535423847214 2.312535423847214 2.312535423847214 2.312535423847214 2.312535423847214
          1.0835056151159523 1.0281302765292248 0.9937975914943837 0.979877831233612 0.9808428176287992 0.9918421822188537
          1.0133622113037037 1.050952001911199 1.1130410969477686 1.2078969791296092 1.3417543792858608 1.5035413869297167
          1.6511188078540375 1.7601381224729153 1.901338721415803 2.1545564035000573 2.312535423847214 2.312535423847214
          2.312535423847214 2.312535423847214 2.312535423847214 2.312535423847214 2.312535423847214 2.312535423847214
          2.312535423847214 2.312535423847214 2.312535423847214 2.312535423847214 2.312535423847214 2.312535423847214
          0.9792539683204682 0.9436281510943817 0.9157989390522603 0.8961691132889668 0.882443730167106 0.8722253138709164
          0.8659020442274127 0.866579565287769 0.8805648846406275 0.9192331832941645 1.000253891492436 1.1393486207412322
          1.3132231793947389 1.4466873994291696 1.4871068126575309 1.7624842099637998 2.1774801608598473 2.312535423847214
          2.312535423847214 2.312535423847214 2.312535423847214 2.312535423847214 2.312535423847214 2.312535423847214
          2.312535423847214 2.312535423847214 2.312535423847214 2.312535423847214 2.312535423847214 2.312535423847214
          0.9254854403521737 0.9069208401940039 0.891013100421288 0.8774134533807515 0.8648003714315187 0.8519050992939166
          0.8378748337221363 0.8220186706205678 0.8050572935813798 0.7922205250045317 0.7984856958772049 0.8525852254735691
          0.9788140882333446 1.1257734031421343 1.1715965670587525 1.3074297690475745 1.8871113345505341 2.312535423847214
          2.312535423847214 2.312535423847214 2.312535423847214 2.312535423847214 2.312535423847214 2.312535423847214
          2.312535423847214 2.312535423847214 2.312535423847214 2.312535423847214 2.312535423847214 2.312535423847214
          0.9008006710078632 0.8932753564594895 0.8864956774763412 0.8798479777577366 0.8728168970027934 0.864846135821177
          0.8543497874646124 0.838943149696854 0.8162563348391291 0.7844480766288354 0.7456408787670105 0.7187676766308724
          0.7539412696134057 0.858369199178031 0.9210695253180237 0.9630773333465799 1.5503441766729436 2.203998102488038
          2.312535423847214 2.312535423847214 2.312535423847214 2.312535423847214 2.312535423847214 2.312535423847214
          2.312535423847214 2.312535423847214 2.312535423847214 2.312535423847214 2.312535423847214 2.312535423847214
          0.8922566138103878 0.8899338345982952 0.8881989683641963 0.8866116845555464 0.8845515138646369 0.8811645332269671
          0.8748094269904709 0.86323234223737 0.8431556334712209 0.8093911018008942 0.7556272377861432 0.6856525498430445
          0.647647360694054 0.6925018260688175 0.746167466950194 0.7780756527937773 1.245388586876911 2.0007152424110277
          2.312535423847214 2.312535423847214 2.312535423847214 2.312535423847214 2.312535423847214 2.312535423847214
          2.312535423847214 2.312535423847214 2.312535423847214 2.312535423847214 2.312535423847214 2.312535423847214
          0.8906175716971896 0.8907553087252789 0.8916533170578362 0.8930541751385681 0.8940411673170792 0.8935138447994715
          0.8900877272035672 0.8815818600976416 0.8641915695815799 0.8312086065073855 0.772001959348991 0.680325685668124
          0.5954459160128565 0.5884280932269583 0.6231183604501104 0.672067876717471 1.0568087649483469 1.8579474186497018
          2.312535423847214 2.312535423847214 2.312535423847214 2.312535423847214 2.312535423847214 2.312535423847214
          2.312535423847214 2.312535423847214 2.312535423847214 2.312535423847214 2.312535423847214 2.312535423847214
          0.8916102690539415 0.8931011735573282 0.8953887460052481 0.8982412092223118 0.9007709833754471 0.901961864259475
          0.900410897779866 0.8938976543130243 0.8783572961079676 0.846156956529628 0.7839373141418017 0.678399728100316
          0.5578944973579131 0.5017856827420558 0.5132838141738963 0.6236139526426396 1.2505145219070257 2.045772095181256
          2.312535423847214 2.312535423847214 2.312535423847214 2.312535423847214 2.312535423847214 2.312535423847214
          2.312535423847214 2.312535423847214 2.312535423847214 2.312535423847214 2.312535423847214 2.312535423847214
          0.8948425501828446 0.8960967396198046 0.8983468156022576 0.9013523580811093 0.9043493805871688 0.9062824894431778
          0.9056057419088557 0.9000440559419736 0.8854884116455182 0.8538362962265279 0.7897088035160253 0.6726509313988756
          0.5173981711092667 0.409397928192806 0.43708967120515907 0.9566429308052414 1.8514994813443693 2.297077240301758
          2.312535423847214 2.312535423847214 2.312535423847214 2.312535423847214 2.312535423847214 2.312535423847214
          2.312535423847214 2.312535423847214 2.312535423847214 2.312535423847214 2.312535423847214 2.312535423847214
          0.9019114115619413 0.9012536989254181 0.901904842456197 0.9037401855258587 0.9060169335959367 0.9074360383939017
          0.906357497203124 0.9003897484998391 0.8854420859157184 0.8531973052009317 0.7857447450417201 0.6524533889605246
          0.4560893750191691 0.3108035670875847 0.4934319009130974 1.4531963484541817 2.2531181404910363 2.312535423847214
          2.312535423847214 2.312535423847214 2.312535423847214 2.312535423847214 2.312535423847214 2.312535423847214
          2.312535423847214 2.312535423847214 2.312535423847214 2.312535423847214 2.312535423847214 2.312535423847214
          0.9169200101303671 0.9114663814362717 0.908741779892109 0.9079379985218161 0.9080993817961964 0.9078919657861773
          0.9052967683805708 0.8976538130163517 0.8809523288201999 0.8462505738219576 0.76986633506219 0.6059137653507802
          0.3719391299850184 0.39613830233072606 1.0779669872021618 1.9625997756051383 2.312535423847214 2.312535423847214
          2.312535423847214 2.312535423847214 2.312535423847214 2.312535423847214 2.312535423847214 2.312535423847214
          2.312535423847214 2.312535423847214 2.312535423847214 2.312535423847214 2.312535423847214 2.312535423847214
          0.952026151858755 0.9322814508492885 0.9220383663366181 0.9169144090067609 0.9143828229587296 0.9121480066190546
          0.9073775889019866 0.8970560928509559 0.8771738214162148 0.8382192128547226 0.7504432101974249 0.5662610766730504
          0.4223000755982462 0.992811942527927 1.948701978844441 2.312535423847214 2.312535423847214 2.312535423847214
          2.312535423847214 2.312535423847214 2.312535423847214 2.312535423847214 2.312535423847214 2.312535423847214
          2.312535423847214 2.312535423847214 2.312535423847214 2.312535423847214 2.312535423847214 2.312535423847214